2
Atoms. Timestep: 0
1 0 0 0
1 1 0 0
2
Atoms. Timestep: 1
1 -12 0 0
1 13 0 0
2
Atoms. Timestep: 2
1 -24 0 0
1 25 0 0
