LAMMPS (3 Mar 2020)
print "1234"
1234
units lj
region szpbox block -10.0 10.0 -10.0 10.0 -10.0 10.0
create_box 1 szpbox
Created orthogonal box = (-10 -10 -10) to (10 10 10)
  1 by 1 by 1 MPI processor grid
log log2.lammps
