ITEM: TIMESTEP
0
ITEM: NUMBER OF ATOMS
4532
ITEM: BOX BOUNDS pp pp ff
0.0000000000000000e+00 1.7500000000000000e+02
0.0000000000000000e+00 1.7500000000000000e+02
-5.0000000000000000e+00 5.0000000000000000e+00
ITEM: ATOMS id type xs ys zs
1 3 0.0636891 0.0694541 0.5
2 3 0.0707657 0.0571975 0.5
3 3 0.0707657 0.0653687 0.5
4 3 0.0778423 0.0694541 0.5
5 3 0.0849189 0.0571975 0.5
6 3 0.0849189 0.0653687 0.5
7 3 0.0919954 0.0694541 0.5
8 3 0.099072 0.0571975 0.5
9 3 0.099072 0.0653687 0.5
10 3 0.106149 0.0694541 0.5
11 3 0.113225 0.0571975 0.5
12 3 0.113225 0.0653687 0.5
13 3 0.120302 0.0694541 0.5
14 3 0.127378 0.0571975 0.5
15 3 0.127378 0.0653687 0.5
16 3 0.134455 0.0694541 0.5
17 3 0.141531 0.0571975 0.5
18 3 0.141531 0.0653687 0.5
19 3 0.148608 0.0694541 0.5
20 3 0.155685 0.0571975 0.5
21 3 0.155685 0.0653687 0.5
22 3 0.162761 0.0694541 0.5
23 3 0.169838 0.0571975 0.5
24 3 0.169838 0.0653687 0.5
25 3 0.176914 0.0694541 0.5
26 3 0.183991 0.0571975 0.5
27 3 0.183991 0.0653687 0.5
28 3 0.191067 0.0694541 0.5
29 3 0.198144 0.0571975 0.5
30 3 0.198144 0.0653687 0.5
31 3 0.205221 0.0694541 0.5
32 3 0.212297 0.0571975 0.5
33 3 0.212297 0.0653687 0.5
34 3 0.219374 0.0694541 0.5
35 3 0.22645 0.0571975 0.5
36 3 0.22645 0.0653687 0.5
37 3 0.233527 0.0694541 0.5
38 3 0.240603 0.0571975 0.5
39 3 0.240603 0.0653687 0.5
40 3 0.24768 0.0694541 0.5
41 3 0.254757 0.0571975 0.5
42 3 0.254757 0.0653687 0.5
43 3 0.261833 0.0694541 0.5
44 3 0.26891 0.0571975 0.5
45 3 0.26891 0.0653687 0.5
46 3 0.275986 0.0694541 0.5
47 3 0.283063 0.0571975 0.5
48 3 0.283063 0.0653687 0.5
49 3 0.290139 0.0694541 0.5
50 3 0.297216 0.0571975 0.5
51 3 0.297216 0.0653687 0.5
52 3 0.304293 0.0694541 0.5
53 3 0.311369 0.0571975 0.5
54 3 0.311369 0.0653687 0.5
55 3 0.318446 0.0694541 0.5
56 3 0.325522 0.0571975 0.5
57 3 0.325522 0.0653687 0.5
58 3 0.332599 0.0694541 0.5
59 3 0.339675 0.0571975 0.5
60 3 0.339675 0.0653687 0.5
61 3 0.346752 0.0694541 0.5
62 3 0.353829 0.0571975 0.5
63 3 0.353829 0.0653687 0.5
64 3 0.360905 0.0694541 0.5
65 3 0.367982 0.0571975 0.5
66 3 0.367982 0.0653687 0.5
67 3 0.375058 0.0694541 0.5
68 3 0.382135 0.0571975 0.5
69 3 0.382135 0.0653687 0.5
70 3 0.389211 0.0694541 0.5
71 3 0.396288 0.0571975 0.5
72 3 0.396288 0.0653687 0.5
73 3 0.403365 0.0694541 0.5
74 3 0.410441 0.0571975 0.5
75 3 0.410441 0.0653687 0.5
76 3 0.417518 0.0694541 0.5
77 3 0.424594 0.0571975 0.5
78 3 0.424594 0.0653687 0.5
79 3 0.431671 0.0694541 0.5
80 3 0.438747 0.0571975 0.5
81 3 0.438747 0.0653687 0.5
82 3 0.445824 0.0694541 0.5
83 3 0.452901 0.0571975 0.5
84 3 0.452901 0.0653687 0.5
85 3 0.459977 0.0694541 0.5
86 3 0.467054 0.0571975 0.5
87 3 0.467054 0.0653687 0.5
88 3 0.47413 0.0694541 0.5
89 3 0.481207 0.0571975 0.5
90 3 0.481207 0.0653687 0.5
91 3 0.488283 0.0694541 0.5
92 3 0.49536 0.0571975 0.5
93 3 0.49536 0.0653687 0.5
94 3 0.502437 0.0694541 0.5
95 3 0.509513 0.0571975 0.5
96 3 0.509513 0.0653687 0.5
97 3 0.51659 0.0694541 0.5
98 3 0.523666 0.0571975 0.5
99 3 0.523666 0.0653687 0.5
100 3 0.530743 0.0694541 0.5
101 3 0.537819 0.0571975 0.5
102 3 0.537819 0.0653687 0.5
103 3 0.544896 0.0694541 0.5
104 3 0.551973 0.0571975 0.5
105 3 0.551973 0.0653687 0.5
106 3 0.559049 0.0694541 0.5
107 3 0.566126 0.0571975 0.5
108 3 0.566126 0.0653687 0.5
109 3 0.573202 0.0694541 0.5
110 3 0.580279 0.0571975 0.5
111 3 0.580279 0.0653687 0.5
112 3 0.587355 0.0694541 0.5
113 3 0.594432 0.0571975 0.5
114 3 0.594432 0.0653687 0.5
115 3 0.601509 0.0694541 0.5
116 3 0.608585 0.0571975 0.5
117 3 0.608585 0.0653687 0.5
118 3 0.615662 0.0694541 0.5
119 3 0.622738 0.0571975 0.5
120 3 0.622738 0.0653687 0.5
121 3 0.629815 0.0694541 0.5
122 3 0.636891 0.0571975 0.5
123 3 0.636891 0.0653687 0.5
124 3 0.643968 0.0694541 0.5
125 3 0.651045 0.0571975 0.5
126 3 0.651045 0.0653687 0.5
127 3 0.658121 0.0694541 0.5
128 3 0.665198 0.0571975 0.5
129 3 0.665198 0.0653687 0.5
130 3 0.672274 0.0694541 0.5
131 3 0.679351 0.0571975 0.5
132 3 0.679351 0.0653687 0.5
133 1 0.0636891 0.0776254 0.5
135 1 0.0707657 0.0817107 0.5
136 1 0.0707657 0.089882 0.5
137 1 0.0778423 0.0776254 0.5
139 1 0.0849189 0.0817107 0.5
140 1 0.0849189 0.089882 0.5
141 1 0.0919954 0.0776254 0.5
143 1 0.099072 0.0817107 0.5
144 1 0.099072 0.089882 0.5
145 1 0.106149 0.0776254 0.5
147 1 0.113225 0.0817107 0.5
148 1 0.113225 0.089882 0.5
149 1 0.120302 0.0776254 0.5
151 1 0.127378 0.0817107 0.5
152 1 0.127378 0.089882 0.5
153 1 0.134455 0.0776254 0.5
155 1 0.141531 0.0817107 0.5
156 1 0.141531 0.089882 0.5
157 1 0.148608 0.0776254 0.5
159 1 0.155685 0.0817107 0.5
160 1 0.155685 0.089882 0.5
161 1 0.162761 0.0776254 0.5
163 1 0.169838 0.0817107 0.5
164 1 0.169838 0.089882 0.5
165 1 0.176914 0.0776254 0.5
167 1 0.183991 0.0817107 0.5
168 1 0.183991 0.089882 0.5
169 1 0.191067 0.0776254 0.5
171 1 0.198144 0.0817107 0.5
172 1 0.198144 0.089882 0.5
173 1 0.205221 0.0776254 0.5
175 1 0.212297 0.0817107 0.5
176 1 0.212297 0.089882 0.5
177 1 0.219374 0.0776254 0.5
179 1 0.22645 0.0817107 0.5
180 1 0.22645 0.089882 0.5
181 1 0.233527 0.0776254 0.5
183 1 0.240603 0.0817107 0.5
184 1 0.240603 0.089882 0.5
185 1 0.24768 0.0776254 0.5
187 1 0.254757 0.0817107 0.5
188 1 0.254757 0.089882 0.5
189 1 0.261833 0.0776254 0.5
191 1 0.26891 0.0817107 0.5
192 1 0.26891 0.089882 0.5
193 1 0.275986 0.0776254 0.5
195 1 0.283063 0.0817107 0.5
196 1 0.283063 0.089882 0.5
197 1 0.290139 0.0776254 0.5
199 1 0.297216 0.0817107 0.5
200 1 0.297216 0.089882 0.5
201 1 0.304293 0.0776254 0.5
203 1 0.311369 0.0817107 0.5
204 1 0.311369 0.089882 0.5
205 1 0.318446 0.0776254 0.5
207 1 0.325522 0.0817107 0.5
208 1 0.325522 0.089882 0.5
209 1 0.332599 0.0776254 0.5
211 1 0.339675 0.0817107 0.5
212 1 0.339675 0.089882 0.5
213 1 0.346752 0.0776254 0.5
215 1 0.353829 0.0817107 0.5
216 1 0.353829 0.089882 0.5
217 1 0.360905 0.0776254 0.5
219 1 0.367982 0.0817107 0.5
220 1 0.367982 0.089882 0.5
221 1 0.375058 0.0776254 0.5
223 1 0.382135 0.0817107 0.5
224 1 0.382135 0.089882 0.5
225 1 0.389211 0.0776254 0.5
227 1 0.396288 0.0817107 0.5
228 1 0.396288 0.089882 0.5
229 1 0.403365 0.0776254 0.5
231 1 0.410441 0.0817107 0.5
232 1 0.410441 0.089882 0.5
233 1 0.417518 0.0776254 0.5
235 1 0.424594 0.0817107 0.5
236 1 0.424594 0.089882 0.5
237 1 0.431671 0.0776254 0.5
239 1 0.438747 0.0817107 0.5
240 1 0.438747 0.089882 0.5
241 1 0.445824 0.0776254 0.5
243 1 0.452901 0.0817107 0.5
244 1 0.452901 0.089882 0.5
245 1 0.459977 0.0776254 0.5
247 1 0.467054 0.0817107 0.5
248 1 0.467054 0.089882 0.5
249 1 0.47413 0.0776254 0.5
251 1 0.481207 0.0817107 0.5
252 1 0.481207 0.089882 0.5
253 1 0.488283 0.0776254 0.5
255 1 0.49536 0.0817107 0.5
256 1 0.49536 0.089882 0.5
257 1 0.502437 0.0776254 0.5
259 1 0.509513 0.0817107 0.5
260 1 0.509513 0.089882 0.5
261 1 0.51659 0.0776254 0.5
263 1 0.523666 0.0817107 0.5
264 1 0.523666 0.089882 0.5
265 1 0.530743 0.0776254 0.5
267 1 0.537819 0.0817107 0.5
268 1 0.537819 0.089882 0.5
269 1 0.544896 0.0776254 0.5
271 1 0.551973 0.0817107 0.5
272 1 0.551973 0.089882 0.5
273 1 0.559049 0.0776254 0.5
275 1 0.566126 0.0817107 0.5
276 1 0.566126 0.089882 0.5
277 1 0.573202 0.0776254 0.5
279 1 0.580279 0.0817107 0.5
280 1 0.580279 0.089882 0.5
281 1 0.587355 0.0776254 0.5
283 1 0.594432 0.0817107 0.5
284 1 0.594432 0.089882 0.5
285 1 0.601509 0.0776254 0.5
287 1 0.608585 0.0817107 0.5
288 1 0.608585 0.089882 0.5
289 1 0.615662 0.0776254 0.5
291 1 0.622738 0.0817107 0.5
292 1 0.622738 0.089882 0.5
293 1 0.629815 0.0776254 0.5
295 1 0.636891 0.0817107 0.5
296 1 0.636891 0.089882 0.5
297 1 0.643968 0.0776254 0.5
299 1 0.651045 0.0817107 0.5
300 1 0.651045 0.089882 0.5
301 1 0.658121 0.0776254 0.5
303 1 0.665198 0.0817107 0.5
304 1 0.665198 0.089882 0.5
305 1 0.672274 0.0776254 0.5
307 1 0.679351 0.0817107 0.5
308 1 0.679351 0.089882 0.5
134 1 0.0636891 0.0939674 0.5
309 1 0.0636891 0.102139 0.5
138 1 0.0778423 0.0939674 0.5
142 1 0.0919954 0.0939674 0.5
311 1 0.0707657 0.106224 0.5
312 1 0.0707657 0.114395 0.5
313 1 0.0778423 0.102139 0.5
315 1 0.0849189 0.106224 0.5
316 1 0.0849189 0.114395 0.5
317 1 0.0919954 0.102139 0.5
146 1 0.106149 0.0939674 0.5
319 1 0.099072 0.106224 0.5
320 1 0.099072 0.114395 0.5
321 1 0.106149 0.102139 0.5
323 1 0.113225 0.106224 0.5
324 1 0.113225 0.114395 0.5
150 1 0.120302 0.0939674 0.5
154 1 0.134455 0.0939674 0.5
325 1 0.120302 0.102139 0.5
327 1 0.127378 0.106224 0.5
328 1 0.127378 0.114395 0.5
329 1 0.134455 0.102139 0.5
158 1 0.148608 0.0939674 0.5
162 1 0.162761 0.0939674 0.5
331 1 0.141531 0.106224 0.5
332 1 0.141531 0.114395 0.5
333 1 0.148608 0.102139 0.5
335 1 0.155685 0.106224 0.5
336 1 0.155685 0.114395 0.5
337 1 0.162761 0.102139 0.5
166 1 0.176914 0.0939674 0.5
339 1 0.169838 0.106224 0.5
340 1 0.169838 0.114395 0.5
341 1 0.176914 0.102139 0.5
343 1 0.183991 0.106224 0.5
344 1 0.183991 0.114395 0.5
170 1 0.191067 0.0939674 0.5
174 1 0.205221 0.0939674 0.5
345 1 0.191067 0.102139 0.5
347 1 0.198144 0.106224 0.5
348 1 0.198144 0.114395 0.5
349 1 0.205221 0.102139 0.5
178 1 0.219374 0.0939674 0.5
351 1 0.212297 0.106224 0.5
352 1 0.212297 0.114395 0.5
353 1 0.219374 0.102139 0.5
355 1 0.22645 0.106224 0.5
356 1 0.22645 0.114395 0.5
182 1 0.233527 0.0939674 0.5
186 1 0.24768 0.0939674 0.5
357 1 0.233527 0.102139 0.5
359 1 0.240603 0.106224 0.5
360 1 0.240603 0.114395 0.5
361 1 0.24768 0.102139 0.5
363 1 0.254757 0.106224 0.5
364 1 0.254757 0.114395 0.5
190 1 0.261833 0.0939674 0.5
194 1 0.275986 0.0939674 0.5
365 1 0.261833 0.102139 0.5
367 1 0.26891 0.106224 0.5
368 1 0.26891 0.114395 0.5
369 1 0.275986 0.102139 0.5
198 1 0.290139 0.0939674 0.5
371 1 0.283063 0.106224 0.5
372 1 0.283063 0.114395 0.5
373 1 0.290139 0.102139 0.5
375 1 0.297216 0.106224 0.5
376 1 0.297216 0.114395 0.5
202 1 0.304293 0.0939674 0.5
206 1 0.318446 0.0939674 0.5
377 1 0.304293 0.102139 0.5
379 1 0.311369 0.106224 0.5
380 1 0.311369 0.114395 0.5
381 1 0.318446 0.102139 0.5
383 1 0.325522 0.106224 0.5
384 1 0.325522 0.114395 0.5
210 1 0.332599 0.0939674 0.5
214 1 0.346752 0.0939674 0.5
385 1 0.332599 0.102139 0.5
387 1 0.339675 0.106224 0.5
388 1 0.339675 0.114395 0.5
389 1 0.346752 0.102139 0.5
218 1 0.360905 0.0939674 0.5
391 1 0.353829 0.106224 0.5
392 1 0.353829 0.114395 0.5
393 1 0.360905 0.102139 0.5
395 1 0.367982 0.106224 0.5
396 1 0.367982 0.114395 0.5
222 1 0.375058 0.0939674 0.5
226 1 0.389211 0.0939674 0.5
397 1 0.375058 0.102139 0.5
399 1 0.382135 0.106224 0.5
400 1 0.382135 0.114395 0.5
401 1 0.389211 0.102139 0.5
230 1 0.403365 0.0939674 0.5
234 1 0.417518 0.0939674 0.5
403 1 0.396288 0.106224 0.5
404 1 0.396288 0.114395 0.5
405 1 0.403365 0.102139 0.5
407 1 0.410441 0.106224 0.5
408 1 0.410441 0.114395 0.5
409 1 0.417518 0.102139 0.5
238 1 0.431671 0.0939674 0.5
411 1 0.424594 0.106224 0.5
412 1 0.424594 0.114395 0.5
413 1 0.431671 0.102139 0.5
415 1 0.438747 0.106224 0.5
416 1 0.438747 0.114395 0.5
242 1 0.445824 0.0939674 0.5
246 1 0.459977 0.0939674 0.5
417 1 0.445824 0.102139 0.5
419 1 0.452901 0.106224 0.5
420 1 0.452901 0.114395 0.5
421 1 0.459977 0.102139 0.5
250 1 0.47413 0.0939674 0.5
254 1 0.488283 0.0939674 0.5
423 1 0.467054 0.106224 0.5
424 1 0.467054 0.114395 0.5
425 1 0.47413 0.102139 0.5
427 1 0.481207 0.106224 0.5
428 1 0.481207 0.114395 0.5
429 1 0.488283 0.102139 0.5
258 1 0.502437 0.0939674 0.5
431 1 0.49536 0.106224 0.5
432 1 0.49536 0.114395 0.5
433 1 0.502437 0.102139 0.5
435 1 0.509513 0.106224 0.5
436 1 0.509513 0.114395 0.5
262 1 0.51659 0.0939674 0.5
266 1 0.530743 0.0939674 0.5
437 1 0.51659 0.102139 0.5
439 1 0.523666 0.106224 0.5
440 1 0.523666 0.114395 0.5
441 1 0.530743 0.102139 0.5
270 1 0.544896 0.0939674 0.5
443 1 0.537819 0.106224 0.5
444 1 0.537819 0.114395 0.5
445 1 0.544896 0.102139 0.5
447 1 0.551973 0.106224 0.5
448 1 0.551973 0.114395 0.5
274 1 0.559049 0.0939674 0.5
278 1 0.573202 0.0939674 0.5
449 1 0.559049 0.102139 0.5
451 1 0.566126 0.106224 0.5
452 1 0.566126 0.114395 0.5
453 1 0.573202 0.102139 0.5
455 1 0.580279 0.106224 0.5
456 1 0.580279 0.114395 0.5
282 1 0.587355 0.0939674 0.5
286 1 0.601509 0.0939674 0.5
457 1 0.587355 0.102139 0.5
459 1 0.594432 0.106224 0.5
460 1 0.594432 0.114395 0.5
461 1 0.601509 0.102139 0.5
290 1 0.615662 0.0939674 0.5
463 1 0.608585 0.106224 0.5
464 1 0.608585 0.114395 0.5
465 1 0.615662 0.102139 0.5
467 1 0.622738 0.106224 0.5
468 1 0.622738 0.114395 0.5
294 1 0.629815 0.0939674 0.5
298 1 0.643968 0.0939674 0.5
469 1 0.629815 0.102139 0.5
471 1 0.636891 0.106224 0.5
472 1 0.636891 0.114395 0.5
473 1 0.643968 0.102139 0.5
475 1 0.651045 0.106224 0.5
476 1 0.651045 0.114395 0.5
302 1 0.658121 0.0939674 0.5
306 1 0.672274 0.0939674 0.5
477 1 0.658121 0.102139 0.5
479 1 0.665198 0.106224 0.5
480 1 0.665198 0.114395 0.5
481 1 0.672274 0.102139 0.5
483 1 0.679351 0.106224 0.5
484 1 0.679351 0.114395 0.5
310 1 0.0636891 0.118481 0.5
485 1 0.0636891 0.126652 0.5
314 1 0.0778423 0.118481 0.5
318 1 0.0919954 0.118481 0.5
487 1 0.0707657 0.130737 0.5
488 1 0.0707657 0.138908 0.5
489 1 0.0778423 0.126652 0.5
491 1 0.0849189 0.130737 0.5
492 1 0.0849189 0.138908 0.5
493 1 0.0919954 0.126652 0.5
322 1 0.106149 0.118481 0.5
495 1 0.099072 0.130737 0.5
496 1 0.099072 0.138908 0.5
497 1 0.106149 0.126652 0.5
499 1 0.113225 0.130737 0.5
500 1 0.113225 0.138908 0.5
326 1 0.120302 0.118481 0.5
330 1 0.134455 0.118481 0.5
501 1 0.120302 0.126652 0.5
503 1 0.127378 0.130737 0.5
504 1 0.127378 0.138908 0.5
505 1 0.134455 0.126652 0.5
334 1 0.148608 0.118481 0.5
338 1 0.162761 0.118481 0.5
507 1 0.141531 0.130737 0.5
508 1 0.141531 0.138908 0.5
509 1 0.148608 0.126652 0.5
511 1 0.155685 0.130737 0.5
512 1 0.155685 0.138908 0.5
513 1 0.162761 0.126652 0.5
342 1 0.176914 0.118481 0.5
515 1 0.169838 0.130737 0.5
516 1 0.169838 0.138908 0.5
517 1 0.176914 0.126652 0.5
519 1 0.183991 0.130737 0.5
520 1 0.183991 0.138908 0.5
346 1 0.191067 0.118481 0.5
350 1 0.205221 0.118481 0.5
521 1 0.191067 0.126652 0.5
523 1 0.198144 0.130737 0.5
524 1 0.198144 0.138908 0.5
525 1 0.205221 0.126652 0.5
354 1 0.219374 0.118481 0.5
527 1 0.212297 0.130737 0.5
528 1 0.212297 0.138908 0.5
529 1 0.219374 0.126652 0.5
531 1 0.22645 0.130737 0.5
532 1 0.22645 0.138908 0.5
358 1 0.233527 0.118481 0.5
362 1 0.24768 0.118481 0.5
533 1 0.233527 0.126652 0.5
535 1 0.240603 0.130737 0.5
536 1 0.240603 0.138908 0.5
537 1 0.24768 0.126652 0.5
539 1 0.254757 0.130737 0.5
540 1 0.254757 0.138908 0.5
366 1 0.261833 0.118481 0.5
370 1 0.275986 0.118481 0.5
541 1 0.261833 0.126652 0.5
543 1 0.26891 0.130737 0.5
544 1 0.26891 0.138908 0.5
545 1 0.275986 0.126652 0.5
374 1 0.290139 0.118481 0.5
547 1 0.283063 0.130737 0.5
548 1 0.283063 0.138908 0.5
549 1 0.290139 0.126652 0.5
551 1 0.297216 0.130737 0.5
552 1 0.297216 0.138908 0.5
378 1 0.304293 0.118481 0.5
382 1 0.318446 0.118481 0.5
553 1 0.304293 0.126652 0.5
555 1 0.311369 0.130737 0.5
556 1 0.311369 0.138908 0.5
557 1 0.318446 0.126652 0.5
559 1 0.325522 0.130737 0.5
560 1 0.325522 0.138908 0.5
386 1 0.332599 0.118481 0.5
390 1 0.346752 0.118481 0.5
561 1 0.332599 0.126652 0.5
563 1 0.339675 0.130737 0.5
564 1 0.339675 0.138908 0.5
565 1 0.346752 0.126652 0.5
394 1 0.360905 0.118481 0.5
567 1 0.353829 0.130737 0.5
568 1 0.353829 0.138908 0.5
569 1 0.360905 0.126652 0.5
571 1 0.367982 0.130737 0.5
572 1 0.367982 0.138908 0.5
398 1 0.375058 0.118481 0.5
402 1 0.389211 0.118481 0.5
573 1 0.375058 0.126652 0.5
575 1 0.382135 0.130737 0.5
576 1 0.382135 0.138908 0.5
577 1 0.389211 0.126652 0.5
406 1 0.403365 0.118481 0.5
410 1 0.417518 0.118481 0.5
579 1 0.396288 0.130737 0.5
580 1 0.396288 0.138908 0.5
581 1 0.403365 0.126652 0.5
583 1 0.410441 0.130737 0.5
584 1 0.410441 0.138908 0.5
585 1 0.417518 0.126652 0.5
414 1 0.431671 0.118481 0.5
587 1 0.424594 0.130737 0.5
588 1 0.424594 0.138908 0.5
589 1 0.431671 0.126652 0.5
591 1 0.438747 0.130737 0.5
592 1 0.438747 0.138908 0.5
418 1 0.445824 0.118481 0.5
422 1 0.459977 0.118481 0.5
593 1 0.445824 0.126652 0.5
595 1 0.452901 0.130737 0.5
596 1 0.452901 0.138908 0.5
597 1 0.459977 0.126652 0.5
426 1 0.47413 0.118481 0.5
430 1 0.488283 0.118481 0.5
599 1 0.467054 0.130737 0.5
600 1 0.467054 0.138908 0.5
601 1 0.47413 0.126652 0.5
603 1 0.481207 0.130737 0.5
604 1 0.481207 0.138908 0.5
605 1 0.488283 0.126652 0.5
434 1 0.502437 0.118481 0.5
607 1 0.49536 0.130737 0.5
608 1 0.49536 0.138908 0.5
609 1 0.502437 0.126652 0.5
611 1 0.509513 0.130737 0.5
612 1 0.509513 0.138908 0.5
438 1 0.51659 0.118481 0.5
442 1 0.530743 0.118481 0.5
613 1 0.51659 0.126652 0.5
615 1 0.523666 0.130737 0.5
616 1 0.523666 0.138908 0.5
617 1 0.530743 0.126652 0.5
446 1 0.544896 0.118481 0.5
619 1 0.537819 0.130737 0.5
620 1 0.537819 0.138908 0.5
621 1 0.544896 0.126652 0.5
623 1 0.551973 0.130737 0.5
624 1 0.551973 0.138908 0.5
450 1 0.559049 0.118481 0.5
454 1 0.573202 0.118481 0.5
625 1 0.559049 0.126652 0.5
627 1 0.566126 0.130737 0.5
628 1 0.566126 0.138908 0.5
629 1 0.573202 0.126652 0.5
631 1 0.580279 0.130737 0.5
632 1 0.580279 0.138908 0.5
458 1 0.587355 0.118481 0.5
462 1 0.601509 0.118481 0.5
633 1 0.587355 0.126652 0.5
635 1 0.594432 0.130737 0.5
636 1 0.594432 0.138908 0.5
637 1 0.601509 0.126652 0.5
466 1 0.615662 0.118481 0.5
639 1 0.608585 0.130737 0.5
640 1 0.608585 0.138908 0.5
641 1 0.615662 0.126652 0.5
643 1 0.622738 0.130737 0.5
644 1 0.622738 0.138908 0.5
470 1 0.629815 0.118481 0.5
474 1 0.643968 0.118481 0.5
645 1 0.629815 0.126652 0.5
647 1 0.636891 0.130737 0.5
648 1 0.636891 0.138908 0.5
649 1 0.643968 0.126652 0.5
651 1 0.651045 0.130737 0.5
652 1 0.651045 0.138908 0.5
478 1 0.658121 0.118481 0.5
482 1 0.672274 0.118481 0.5
653 1 0.658121 0.126652 0.5
655 1 0.665198 0.130737 0.5
656 1 0.665198 0.138908 0.5
657 1 0.672274 0.126652 0.5
659 1 0.679351 0.130737 0.5
660 1 0.679351 0.138908 0.5
486 1 0.0636891 0.142994 0.5
661 1 0.0636891 0.151165 0.5
490 1 0.0778423 0.142994 0.5
494 1 0.0919954 0.142994 0.5
663 1 0.0707657 0.15525 0.5
665 1 0.0778423 0.151165 0.5
667 1 0.0849189 0.15525 0.5
669 1 0.0919954 0.151165 0.5
498 1 0.106149 0.142994 0.5
671 1 0.099072 0.15525 0.5
673 1 0.106149 0.151165 0.5
675 1 0.113225 0.15525 0.5
502 1 0.120302 0.142994 0.5
506 1 0.134455 0.142994 0.5
677 1 0.120302 0.151165 0.5
679 1 0.127378 0.15525 0.5
681 1 0.134455 0.151165 0.5
510 1 0.148608 0.142994 0.5
514 1 0.162761 0.142994 0.5
683 1 0.141531 0.15525 0.5
685 1 0.148608 0.151165 0.5
687 1 0.155685 0.15525 0.5
689 1 0.162761 0.151165 0.5
518 1 0.176914 0.142994 0.5
691 1 0.169838 0.15525 0.5
693 1 0.176914 0.151165 0.5
695 1 0.183991 0.15525 0.5
522 1 0.191067 0.142994 0.5
526 1 0.205221 0.142994 0.5
697 1 0.191067 0.151165 0.5
699 1 0.198144 0.15525 0.5
701 1 0.205221 0.151165 0.5
530 1 0.219374 0.142994 0.5
703 1 0.212297 0.15525 0.5
705 1 0.219374 0.151165 0.5
707 1 0.22645 0.15525 0.5
534 1 0.233527 0.142994 0.5
538 1 0.24768 0.142994 0.5
709 1 0.233527 0.151165 0.5
711 1 0.240603 0.15525 0.5
713 1 0.24768 0.151165 0.5
715 1 0.254757 0.15525 0.5
542 1 0.261833 0.142994 0.5
546 1 0.275986 0.142994 0.5
717 1 0.261833 0.151165 0.5
719 1 0.26891 0.15525 0.5
721 1 0.275986 0.151165 0.5
550 1 0.290139 0.142994 0.5
723 1 0.283063 0.15525 0.5
725 1 0.290139 0.151165 0.5
727 1 0.297216 0.15525 0.5
554 1 0.304293 0.142994 0.5
558 1 0.318446 0.142994 0.5
729 1 0.304293 0.151165 0.5
731 1 0.311369 0.15525 0.5
733 1 0.318446 0.151165 0.5
735 1 0.325522 0.15525 0.5
562 1 0.332599 0.142994 0.5
566 1 0.346752 0.142994 0.5
737 1 0.332599 0.151165 0.5
739 1 0.339675 0.15525 0.5
741 1 0.346752 0.151165 0.5
570 1 0.360905 0.142994 0.5
743 1 0.353829 0.15525 0.5
745 1 0.360905 0.151165 0.5
747 1 0.367982 0.15525 0.5
574 1 0.375058 0.142994 0.5
578 1 0.389211 0.142994 0.5
749 1 0.375058 0.151165 0.5
751 1 0.382135 0.15525 0.5
753 1 0.389211 0.151165 0.5
582 1 0.403365 0.142994 0.5
586 1 0.417518 0.142994 0.5
755 1 0.396288 0.15525 0.5
757 1 0.403365 0.151165 0.5
759 1 0.410441 0.15525 0.5
761 1 0.417518 0.151165 0.5
590 1 0.431671 0.142994 0.5
763 1 0.424594 0.15525 0.5
765 1 0.431671 0.151165 0.5
767 1 0.438747 0.15525 0.5
594 1 0.445824 0.142994 0.5
598 1 0.459977 0.142994 0.5
769 1 0.445824 0.151165 0.5
771 1 0.452901 0.15525 0.5
773 1 0.459977 0.151165 0.5
602 1 0.47413 0.142994 0.5
606 1 0.488283 0.142994 0.5
775 1 0.467054 0.15525 0.5
777 1 0.47413 0.151165 0.5
779 1 0.481207 0.15525 0.5
781 1 0.488283 0.151165 0.5
610 1 0.502437 0.142994 0.5
783 1 0.49536 0.15525 0.5
785 1 0.502437 0.151165 0.5
787 1 0.509513 0.15525 0.5
614 1 0.51659 0.142994 0.5
618 1 0.530743 0.142994 0.5
789 1 0.51659 0.151165 0.5
791 1 0.523666 0.15525 0.5
793 1 0.530743 0.151165 0.5
622 1 0.544896 0.142994 0.5
795 1 0.537819 0.15525 0.5
797 1 0.544896 0.151165 0.5
799 1 0.551973 0.15525 0.5
626 1 0.559049 0.142994 0.5
630 1 0.573202 0.142994 0.5
801 1 0.559049 0.151165 0.5
803 1 0.566126 0.15525 0.5
805 1 0.573202 0.151165 0.5
807 1 0.580279 0.15525 0.5
634 1 0.587355 0.142994 0.5
638 1 0.601509 0.142994 0.5
809 1 0.587355 0.151165 0.5
811 1 0.594432 0.15525 0.5
813 1 0.601509 0.151165 0.5
642 1 0.615662 0.142994 0.5
815 1 0.608585 0.15525 0.5
817 1 0.615662 0.151165 0.5
819 1 0.622738 0.15525 0.5
646 1 0.629815 0.142994 0.5
650 1 0.643968 0.142994 0.5
821 1 0.629815 0.151165 0.5
823 1 0.636891 0.15525 0.5
825 1 0.643968 0.151165 0.5
827 1 0.651045 0.15525 0.5
654 1 0.658121 0.142994 0.5
658 1 0.672274 0.142994 0.5
829 1 0.658121 0.151165 0.5
831 1 0.665198 0.15525 0.5
833 1 0.672274 0.151165 0.5
835 1 0.679351 0.15525 0.5
662 1 0.0636891 0.167507 0.5
837 1 0.0636891 0.175678 0.5
664 1 0.0707657 0.163422 0.5
666 1 0.0778423 0.167507 0.5
668 1 0.0849189 0.163422 0.5
670 1 0.0919954 0.167507 0.5
839 1 0.0707657 0.179764 0.5
841 1 0.0778423 0.175678 0.5
843 1 0.0849189 0.179764 0.5
845 1 0.0919954 0.175678 0.5
672 1 0.099072 0.163422 0.5
674 1 0.106149 0.167507 0.5
676 1 0.113225 0.163422 0.5
847 1 0.099072 0.179764 0.5
849 1 0.106149 0.175678 0.5
851 1 0.113225 0.179764 0.5
678 1 0.120302 0.167507 0.5
680 1 0.127378 0.163422 0.5
682 1 0.134455 0.167507 0.5
853 1 0.120302 0.175678 0.5
855 1 0.127378 0.179764 0.5
857 1 0.134455 0.175678 0.5
684 1 0.141531 0.163422 0.5
686 1 0.148608 0.167507 0.5
688 1 0.155685 0.163422 0.5
690 1 0.162761 0.167507 0.5
859 1 0.141531 0.179764 0.5
861 1 0.148608 0.175678 0.5
863 1 0.155685 0.179764 0.5
865 1 0.162761 0.175678 0.5
692 1 0.169838 0.163422 0.5
694 1 0.176914 0.167507 0.5
696 1 0.183991 0.163422 0.5
867 1 0.169838 0.179764 0.5
869 1 0.176914 0.175678 0.5
871 1 0.183991 0.179764 0.5
698 1 0.191067 0.167507 0.5
700 1 0.198144 0.163422 0.5
702 1 0.205221 0.167507 0.5
873 1 0.191067 0.175678 0.5
875 1 0.198144 0.179764 0.5
877 1 0.205221 0.175678 0.5
704 1 0.212297 0.163422 0.5
706 1 0.219374 0.167507 0.5
708 1 0.22645 0.163422 0.5
879 1 0.212297 0.179764 0.5
881 1 0.219374 0.175678 0.5
883 1 0.22645 0.179764 0.5
710 1 0.233527 0.167507 0.5
712 1 0.240603 0.163422 0.5
714 1 0.24768 0.167507 0.5
716 1 0.254757 0.163422 0.5
885 1 0.233527 0.175678 0.5
887 1 0.240603 0.179764 0.5
889 1 0.24768 0.175678 0.5
891 1 0.254757 0.179764 0.5
718 1 0.261833 0.167507 0.5
720 1 0.26891 0.163422 0.5
722 1 0.275986 0.167507 0.5
893 1 0.261833 0.175678 0.5
895 1 0.26891 0.179764 0.5
897 1 0.275986 0.175678 0.5
724 1 0.283063 0.163422 0.5
726 1 0.290139 0.167507 0.5
728 1 0.297216 0.163422 0.5
899 1 0.283063 0.179764 0.5
901 1 0.290139 0.175678 0.5
903 1 0.297216 0.179764 0.5
730 1 0.304293 0.167507 0.5
732 1 0.311369 0.163422 0.5
734 1 0.318446 0.167507 0.5
736 1 0.325522 0.163422 0.5
905 1 0.304293 0.175678 0.5
907 1 0.311369 0.179764 0.5
909 1 0.318446 0.175678 0.5
911 1 0.325522 0.179764 0.5
738 1 0.332599 0.167507 0.5
740 1 0.339675 0.163422 0.5
742 1 0.346752 0.167507 0.5
913 1 0.332599 0.175678 0.5
915 1 0.339675 0.179764 0.5
917 1 0.346752 0.175678 0.5
744 1 0.353829 0.163422 0.5
746 1 0.360905 0.167507 0.5
748 1 0.367982 0.163422 0.5
919 1 0.353829 0.179764 0.5
921 1 0.360905 0.175678 0.5
923 1 0.367982 0.179764 0.5
750 1 0.375058 0.167507 0.5
752 1 0.382135 0.163422 0.5
754 1 0.389211 0.167507 0.5
925 1 0.375058 0.175678 0.5
927 1 0.382135 0.179764 0.5
929 1 0.389211 0.175678 0.5
756 1 0.396288 0.163422 0.5
758 1 0.403365 0.167507 0.5
760 1 0.410441 0.163422 0.5
762 1 0.417518 0.167507 0.5
931 1 0.396288 0.179764 0.5
933 1 0.403365 0.175678 0.5
935 1 0.410441 0.179764 0.5
937 1 0.417518 0.175678 0.5
764 1 0.424594 0.163422 0.5
766 1 0.431671 0.167507 0.5
768 1 0.438747 0.163422 0.5
939 1 0.424594 0.179764 0.5
941 1 0.431671 0.175678 0.5
943 1 0.438747 0.179764 0.5
770 1 0.445824 0.167507 0.5
772 1 0.452901 0.163422 0.5
774 1 0.459977 0.167507 0.5
945 1 0.445824 0.175678 0.5
947 1 0.452901 0.179764 0.5
949 1 0.459977 0.175678 0.5
776 1 0.467054 0.163422 0.5
778 1 0.47413 0.167507 0.5
780 1 0.481207 0.163422 0.5
782 1 0.488283 0.167507 0.5
951 1 0.467054 0.179764 0.5
953 1 0.47413 0.175678 0.5
955 1 0.481207 0.179764 0.5
957 1 0.488283 0.175678 0.5
784 1 0.49536 0.163422 0.5
786 1 0.502437 0.167507 0.5
788 1 0.509513 0.163422 0.5
959 1 0.49536 0.179764 0.5
961 1 0.502437 0.175678 0.5
963 1 0.509513 0.179764 0.5
790 1 0.51659 0.167507 0.5
792 1 0.523666 0.163422 0.5
794 1 0.530743 0.167507 0.5
965 1 0.51659 0.175678 0.5
967 1 0.523666 0.179764 0.5
969 1 0.530743 0.175678 0.5
796 1 0.537819 0.163422 0.5
798 1 0.544896 0.167507 0.5
800 1 0.551973 0.163422 0.5
971 1 0.537819 0.179764 0.5
973 1 0.544896 0.175678 0.5
975 1 0.551973 0.179764 0.5
802 1 0.559049 0.167507 0.5
804 1 0.566126 0.163422 0.5
806 1 0.573202 0.167507 0.5
808 1 0.580279 0.163422 0.5
977 1 0.559049 0.175678 0.5
979 1 0.566126 0.179764 0.5
981 1 0.573202 0.175678 0.5
983 1 0.580279 0.179764 0.5
810 1 0.587355 0.167507 0.5
812 1 0.594432 0.163422 0.5
814 1 0.601509 0.167507 0.5
985 1 0.587355 0.175678 0.5
987 1 0.594432 0.179764 0.5
989 1 0.601509 0.175678 0.5
816 1 0.608585 0.163422 0.5
818 1 0.615662 0.167507 0.5
820 1 0.622738 0.163422 0.5
991 1 0.608585 0.179764 0.5
993 1 0.615662 0.175678 0.5
995 1 0.622738 0.179764 0.5
822 1 0.629815 0.167507 0.5
824 1 0.636891 0.163422 0.5
826 1 0.643968 0.167507 0.5
828 1 0.651045 0.163422 0.5
997 1 0.629815 0.175678 0.5
999 1 0.636891 0.179764 0.5
1001 1 0.643968 0.175678 0.5
1003 1 0.651045 0.179764 0.5
830 1 0.658121 0.167507 0.5
832 1 0.665198 0.163422 0.5
834 1 0.672274 0.167507 0.5
1005 1 0.658121 0.175678 0.5
1007 1 0.665198 0.179764 0.5
1009 1 0.672274 0.175678 0.5
836 1 0.679351 0.163422 0.5
1011 1 0.679351 0.179764 0.5
838 1 0.0636891 0.19202 0.5
1013 1 0.0636891 0.200192 0.5
840 1 0.0707657 0.187935 0.5
842 1 0.0778423 0.19202 0.5
844 1 0.0849189 0.187935 0.5
846 1 0.0919954 0.19202 0.5
1015 1 0.0707657 0.204277 0.5
1017 1 0.0778423 0.200192 0.5
1019 1 0.0849189 0.204277 0.5
1021 1 0.0919954 0.200192 0.5
848 1 0.099072 0.187935 0.5
850 1 0.106149 0.19202 0.5
852 1 0.113225 0.187935 0.5
1023 1 0.099072 0.204277 0.5
1025 1 0.106149 0.200192 0.5
1027 1 0.113225 0.204277 0.5
854 1 0.120302 0.19202 0.5
856 1 0.127378 0.187935 0.5
858 1 0.134455 0.19202 0.5
1029 1 0.120302 0.200192 0.5
1031 1 0.127378 0.204277 0.5
1033 1 0.134455 0.200192 0.5
860 1 0.141531 0.187935 0.5
862 1 0.148608 0.19202 0.5
864 1 0.155685 0.187935 0.5
866 1 0.162761 0.19202 0.5
1035 1 0.141531 0.204277 0.5
1037 1 0.148608 0.200192 0.5
1039 1 0.155685 0.204277 0.5
1041 1 0.162761 0.200192 0.5
868 1 0.169838 0.187935 0.5
870 1 0.176914 0.19202 0.5
872 1 0.183991 0.187935 0.5
1043 1 0.169838 0.204277 0.5
1045 1 0.176914 0.200192 0.5
1047 1 0.183991 0.204277 0.5
874 1 0.191067 0.19202 0.5
876 1 0.198144 0.187935 0.5
878 1 0.205221 0.19202 0.5
1049 1 0.191067 0.200192 0.5
1051 1 0.198144 0.204277 0.5
1053 1 0.205221 0.200192 0.5
880 1 0.212297 0.187935 0.5
882 1 0.219374 0.19202 0.5
884 1 0.22645 0.187935 0.5
1055 1 0.212297 0.204277 0.5
1057 1 0.219374 0.200192 0.5
1059 1 0.22645 0.204277 0.5
886 1 0.233527 0.19202 0.5
888 1 0.240603 0.187935 0.5
890 1 0.24768 0.19202 0.5
892 1 0.254757 0.187935 0.5
1061 1 0.233527 0.200192 0.5
1063 1 0.240603 0.204277 0.5
1065 1 0.24768 0.200192 0.5
1067 1 0.254757 0.204277 0.5
894 1 0.261833 0.19202 0.5
896 1 0.26891 0.187935 0.5
898 1 0.275986 0.19202 0.5
1069 1 0.261833 0.200192 0.5
1071 1 0.26891 0.204277 0.5
1073 1 0.275986 0.200192 0.5
900 1 0.283063 0.187935 0.5
902 1 0.290139 0.19202 0.5
904 1 0.297216 0.187935 0.5
1075 1 0.283063 0.204277 0.5
1077 1 0.290139 0.200192 0.5
1079 1 0.297216 0.204277 0.5
906 1 0.304293 0.19202 0.5
908 1 0.311369 0.187935 0.5
910 1 0.318446 0.19202 0.5
912 1 0.325522 0.187935 0.5
1081 1 0.304293 0.200192 0.5
1083 1 0.311369 0.204277 0.5
1085 1 0.318446 0.200192 0.5
1087 1 0.325522 0.204277 0.5
914 1 0.332599 0.19202 0.5
916 1 0.339675 0.187935 0.5
918 1 0.346752 0.19202 0.5
1089 1 0.332599 0.200192 0.5
1091 1 0.339675 0.204277 0.5
1093 1 0.346752 0.200192 0.5
920 1 0.353829 0.187935 0.5
922 1 0.360905 0.19202 0.5
924 1 0.367982 0.187935 0.5
1095 1 0.353829 0.204277 0.5
1097 1 0.360905 0.200192 0.5
1099 1 0.367982 0.204277 0.5
926 1 0.375058 0.19202 0.5
928 1 0.382135 0.187935 0.5
930 1 0.389211 0.19202 0.5
1101 1 0.375058 0.200192 0.5
1103 1 0.382135 0.204277 0.5
1105 1 0.389211 0.200192 0.5
932 1 0.396288 0.187935 0.5
934 1 0.403365 0.19202 0.5
936 1 0.410441 0.187935 0.5