ITEM: TIMESTEP
0
ITEM: NUMBER OF ATOMS
4532
ITEM: BOX BOUNDS pp pp ff
1.7601672782635944e+00 1.7323983272173609e+02
2.2153521912334497e+00 1.7278464780876635e+02
-5.0000000000000000e+00 5.0000000000000000e+00
ITEM: ATOMS id type xs ys zs
145 1 0.10621 0.0776125 0.494763
147 1 0.113252 0.0819211 0.481566
148 1 0.113027 0.0901904 0.476635
146 1 0.106135 0.0940642 0.493276
149 1 0.120359 0.0777695 0.49442
151 1 0.127346 0.0818361 0.482661
152 1 0.127516 0.0900687 0.475188
153 1 0.134467 0.0774376 0.485015
155 1 0.141519 0.0815312 0.489526
156 1 0.141543 0.0896477 0.478742
150 1 0.120359 0.0940663 0.472613
154 1 0.134541 0.0940544 0.471199
157 1 0.148523 0.0774805 0.49639
159 1 0.155774 0.0815191 0.486287
160 1 0.155869 0.089807 0.478151
161 1 0.162789 0.0774364 0.481404
158 1 0.148647 0.0936247 0.476217
162 1 0.1629 0.0940871 0.481582
163 1 0.169824 0.0816282 0.482449
164 1 0.170048 0.0898385 0.479663
165 1 0.176832 0.0776412 0.490111
167 1 0.18383 0.0817752 0.480723
168 1 0.184147 0.0899644 0.462095
166 1 0.177123 0.0940464 0.46295
169 1 0.190973 0.077646 0.478853
171 1 0.19809 0.0817969 0.476551
172 1 0.198114 0.0899097 0.464232
173 1 0.205063 0.0775688 0.486146
175 1 0.212181 0.0816903 0.48334
176 1 0.212367 0.0898502 0.466488
170 1 0.191029 0.0940566 0.45686
174 1 0.205319 0.0940908 0.448498
177 1 0.219276 0.0776624 0.492903
180 1 0.226434 0.089983 0.495778
178 1 0.219344 0.094026 0.474114
184 1 0.240506 0.0900425 0.492933
187 1 0.254694 0.0817608 0.499307
188 1 0.254805 0.0899723 0.49743
186 1 0.247756 0.0939871 0.499546
190 1 0.261897 0.0940454 0.491699
189 1 0.261968 0.0777601 0.492878
191 1 0.26891 0.0818877 0.49826
192 1 0.269004 0.0900842 0.49662
195 1 0.283217 0.0819019 0.493881
196 1 0.283192 0.0898928 0.492277
194 1 0.276112 0.0938901 0.48646
197 1 0.290162 0.0776245 0.487088
199 1 0.297315 0.081369 0.484819
200 1 0.297126 0.0896824 0.487463
201 1 0.304528 0.0775212 0.480987
198 1 0.290078 0.0939525 0.490375
202 1 0.304231 0.0938972 0.475893
203 1 0.311701 0.0815512 0.477106
204 1 0.311468 0.0897061 0.475033
205 1 0.318549 0.0776315 0.498298
207 1 0.325681 0.0816302 0.487007
208 1 0.325612 0.0900299 0.484454
209 1 0.332566 0.0775797 0.493949
206 1 0.318438 0.0938306 0.466789
210 1 0.332773 0.094084 0.463491
211 1 0.339817 0.0817286 0.492583
212 1 0.339737 0.0899446 0.481962
213 1 0.34702 0.0775437 0.489955
215 1 0.354043 0.0816648 0.4907
216 1 0.353854 0.0899451 0.499304
214 1 0.346833 0.093901 0.485396
219 1 0.368116 0.081721 0.496083
221 1 0.375305 0.0775842 0.493479
218 1 0.360797 0.09399 0.497261
223 1 0.382288 0.0817685 0.485089
224 1 0.382207 0.089745 0.487534
225 1 0.389363 0.0776086 0.495894
227 1 0.396491 0.0815571 0.493879
228 1 0.396292 0.0898308 0.488148
226 1 0.389203 0.094042 0.486517
230 1 0.403434 0.0939999 0.48986
232 1 0.410458 0.0897876 0.488514
236 1 0.424574 0.0899687 0.490413
234 1 0.417514 0.0939302 0.483368
239 1 0.438916 0.0817675 0.496311
240 1 0.438743 0.0900519 0.479669
238 1 0.431726 0.0941662 0.484244
242 1 0.445963 0.0940564 0.481054
244 1 0.452874 0.089888 0.49309
245 1 0.459929 0.0774812 0.491916
248 1 0.466739 0.0900368 0.498504
249 1 0.474127 0.0775933 0.497639
246 1 0.459662 0.0939274 0.492839
250 1 0.473951 0.0936617 0.48875
252 1 0.481238 0.0897931 0.495209
255 1 0.495375 0.0816659 0.494594
256 1 0.495289 0.0899589 0.4803
254 1 0.488171 0.0938061 0.480764
257 1 0.502464 0.0776449 0.494367
259 1 0.509484 0.0818818 0.48648
260 1 0.509415 0.0899058 0.47907
261 1 0.516559 0.0774957 0.495701
263 1 0.523626 0.0816535 0.498026
264 1 0.523339 0.0897759 0.489154
258 1 0.502295 0.0940758 0.473489
262 1 0.516461 0.0940855 0.479285
266 1 0.530551 0.0937639 0.491045
272 1 0.551919 0.0900597 0.499859
276 1 0.566006 0.0898744 0.492887
274 1 0.558987 0.0940242 0.490737
279 1 0.580256 0.0816522 0.494838
280 1 0.580102 0.0901094 0.490614
284 1 0.594273 0.0900753 0.497529
278 1 0.572998 0.0940928 0.492382
282 1 0.587353 0.0941918 0.493896
291 1 0.622697 0.0817788 0.498677
295 1 0.63671 0.0818419 0.490444
296 1 0.636662 0.0900946 0.485009
294 1 0.629548 0.0940552 0.498525
297 1 0.643737 0.0776028 0.490656
299 1 0.650734 0.0816247 0.497097
300 1 0.650822 0.0897323 0.492833
301 1 0.657821 0.0777929 0.494099
298 1 0.64382 0.0939654 0.492437
302 1 0.657668 0.094118 0.490901
309 1 0.0641524 0.102705 0.489576
311 1 0.0710655 0.106685 0.458632
312 1 0.0712513 0.114455 0.410645
310 1 0.0653007 0.118783 0.346082
313 1 0.0778729 0.102544 0.479905
315 1 0.084887 0.106724 0.483383
316 1 0.0851699 0.114715 0.463751
317 1 0.0917977 0.102571 0.494568
314 1 0.078233 0.118647 0.426407
318 1 0.0921136 0.118831 0.480831
319 1 0.0989541 0.106534 0.49399
320 1 0.0990143 0.114663 0.494392
321 1 0.105991 0.102342 0.490821
323 1 0.113243 0.106201 0.472995
324 1 0.113179 0.11452 0.469749
322 1 0.10618 0.118594 0.483706
325 1 0.120191 0.102368 0.476888
327 1 0.127317 0.106079 0.479024
328 1 0.127322 0.114482 0.482684
329 1 0.134475 0.102219 0.47324
331 1 0.141683 0.106091 0.479415
332 1 0.14163 0.114169 0.479175
326 1 0.120276 0.118534 0.490624
330 1 0.134597 0.118257 0.486672
333 1 0.148731 0.102077 0.48482
335 1 0.15592 0.106247 0.480519
336 1 0.155667 0.114223 0.46938
337 1 0.162941 0.102146 0.476163
334 1 0.148553 0.118144 0.478481
338 1 0.162812 0.118406 0.45115
339 1 0.169916 0.106159 0.452976
340 1 0.169717 0.114426 0.451451
341 1 0.176929 0.102116 0.440615
343 1 0.183975 0.106112 0.425907
344 1 0.183876 0.114285 0.419688
342 1 0.176698 0.118411 0.429998
345 1 0.191233 0.102264 0.437375
347 1 0.198312 0.106367 0.429629
348 1 0.198206 0.114474 0.416501
349 1 0.205328 0.102213 0.44291
351 1 0.212378 0.106068 0.450205
352 1 0.212181 0.114347 0.447075
346 1 0.191053 0.118316 0.408642
350 1 0.205284 0.118376 0.426779
353 1 0.21964 0.102102 0.467486
355 1 0.22658 0.106272 0.481631
356 1 0.226321 0.114447 0.469513
354 1 0.2193 0.118504 0.454345
358 1 0.233465 0.118515 0.469112
360 1 0.240561 0.114623 0.488382
361 1 0.247627 0.102203 0.496965
363 1 0.25497 0.106115 0.48957
364 1 0.254894 0.114381 0.49061
362 1 0.247781 0.118508 0.482378
366 1 0.261865 0.118417 0.478979
365 1 0.261964 0.10226 0.482084
367 1 0.268906 0.106241 0.470072
368 1 0.268941 0.114447 0.474982
369 1 0.276109 0.102154 0.480221
371 1 0.282974 0.106286 0.473925
372 1 0.282906 0.114408 0.479619
370 1 0.275967 0.118639 0.488435
373 1 0.290074 0.102055 0.476182
375 1 0.297062 0.106195 0.46697
376 1 0.297042 0.114374 0.455488
377 1 0.30411 0.10202 0.482471
374 1 0.290012 0.118523 0.46444
378 1 0.304352 0.118548 0.460278
379 1 0.311341 0.106053 0.477847
380 1 0.311296 0.114171 0.469463
381 1 0.318371 0.102043 0.473543
383 1 0.325483 0.106151 0.466602
384 1 0.325318 0.114222 0.46831
385 1 0.332704 0.102388 0.467185
382 1 0.318181 0.118317 0.469444
386 1 0.332365 0.118351 0.468956
387 1 0.339732 0.106435 0.48373
388 1 0.339547 0.114527 0.475604
389 1 0.346709 0.102188 0.490741
391 1 0.35364 0.106202 0.483399
392 1 0.353633 0.114292 0.470988
390 1 0.34668 0.118671 0.470563
393 1 0.360734 0.102073 0.489453
395 1 0.367825 0.10623 0.488895
396 1 0.367722 0.114342 0.486653
394 1 0.360733 0.118431 0.473766
398 1 0.374979 0.11844 0.491382
401 1 0.388998 0.102176 0.497895
404 1 0.396128 0.114415 0.499599
402 1 0.389008 0.118499 0.492812
406 1 0.403101 0.118466 0.495201
407 1 0.410116 0.106358 0.483124
408 1 0.410385 0.11449 0.493986
409 1 0.417243 0.101963 0.477084
411 1 0.424401 0.106173 0.468397
412 1 0.424199 0.114278 0.467865
410 1 0.417466 0.118525 0.472208
413 1 0.431511 0.102441 0.481499
415 1 0.438559 0.106314 0.471549
416 1 0.438481 0.114509 0.461689
417 1 0.445655 0.102349 0.464108
414 1 0.431269 0.11845 0.45695
418 1 0.445613 0.118622 0.456855
419 1 0.452587 0.106347 0.46787
420 1 0.452725 0.114641 0.466165
421 1 0.459566 0.102102 0.481763
423 1 0.46682 0.10596 0.478235
424 1 0.467007 0.114273 0.468364
425 1 0.474138 0.101899 0.479665
422 1 0.45997 0.118514 0.463252
426 1 0.473934 0.118275 0.461527
427 1 0.481054 0.106168 0.485271
428 1 0.481022 0.11428 0.463696
429 1 0.488205 0.102222 0.486355
431 1 0.495029 0.106134 0.47264
432 1 0.495467 0.114288 0.452774
430 1 0.488275 0.118546 0.454538
433 1 0.502032 0.102281 0.467961
435 1 0.509321 0.106145 0.473337
436 1 0.509413 0.114275 0.469529
437 1 0.516551 0.102198 0.479377
439 1 0.523461 0.106324 0.474127
440 1 0.52352 0.114507 0.473357
434 1 0.50239 0.118318 0.458576
438 1 0.516482 0.118639 0.460744
441 1 0.530525 0.1019 0.47275
443 1 0.537454 0.106297 0.483008
444 1 0.537553 0.114446 0.46315
445 1 0.544733 0.102105 0.498375
442 1 0.530608 0.118626 0.471071
446 1 0.544534 0.118415 0.464702
447 1 0.551683 0.106233 0.48885
448 1 0.551438 0.114197 0.469064
449 1 0.55888 0.102078 0.490148
451 1 0.565844 0.106287 0.490076
452 1 0.565592 0.114349 0.496088
450 1 0.558398 0.118489 0.483173
453 1 0.5729 0.102258 0.491648
455 1 0.57987 0.106247 0.497558
457 1 0.587089 0.102485 0.499742
471 1 0.636577 0.106278 0.496225
472 1 0.636472 0.1144 0.497141
473 1 0.643576 0.102228 0.495493
475 1 0.650512 0.106432 0.485085
476 1 0.650735 0.114612 0.481622
477 1 0.657698 0.102343 0.491225
479 1 0.66485 0.106607 0.494669
480 1 0.664721 0.11453 0.479024
474 1 0.643665 0.118686 0.492769
478 1 0.657796 0.118861 0.483051
482 1 0.671765 0.119018 0.490985
485 1 0.0653446 0.126724 0.359377
487 1 0.0717591 0.131164 0.416626
488 1 0.0715598 0.139142 0.456188
489 1 0.078615 0.126826 0.433808
491 1 0.0852631 0.13132 0.462062
492 1 0.0856403 0.139263 0.480302
493 1 0.0923631 0.127043 0.468762
495 1 0.0993291 0.130989 0.469663
496 1 0.0996055 0.139172 0.484312
497 1 0.106319 0.126798 0.473546
499 1 0.113535 0.130732 0.491462
500 1 0.113544 0.138944 0.48695
501 1 0.120725 0.126755 0.491653
503 1 0.127743 0.130786 0.477781
504 1 0.127752 0.138813 0.471874
505 1 0.134703 0.126646 0.481348
507 1 0.141788 0.130734 0.477734
508 1 0.141674 0.138911 0.468296
509 1 0.148779 0.126523 0.46718
511 1 0.155506 0.130826 0.451455
512 1 0.155504 0.138783 0.455682
513 1 0.162688 0.126647 0.454291
514 1 0.162747 0.142833 0.455814
515 1 0.169895 0.130715 0.439604
516 1 0.169888 0.13885 0.439976
517 1 0.176905 0.126607 0.432293
519 1 0.184115 0.130415 0.419334
520 1 0.184215 0.138778 0.423288
521 1 0.191095 0.126368 0.415313
523 1 0.198214 0.130592 0.420685
524 1 0.198344 0.139009 0.426806
525 1 0.205194 0.126525 0.431304
527 1 0.212278 0.130706 0.429421
528 1 0.212518 0.138938 0.421723
529 1 0.21942 0.126719 0.438466
531 1 0.22658 0.130879 0.435678
532 1 0.226665 0.139142 0.433408
533 1 0.233829 0.126822 0.452399
535 1 0.241154 0.130867 0.448321
536 1 0.240948 0.139128 0.45345
537 1 0.247952 0.126669 0.466385
539 1 0.254877 0.130728 0.473259
540 1 0.254964 0.139014 0.476711
541 1 0.262057 0.126669 0.484074
543 1 0.268889 0.130884 0.486569
544 1 0.269066 0.13916 0.485253
545 1 0.276237 0.126983 0.47959
547 1 0.283221 0.13087 0.46938
548 1 0.283309 0.139016 0.464057
549 1 0.29027 0.126604 0.459213
551 1 0.297377 0.130834 0.448409
552 1 0.297422 0.139126 0.443499
553 1 0.304513 0.126686 0.451336
555 1 0.311693 0.130849 0.456717
556 1 0.311439 0.138977 0.451813
557 1 0.318578 0.126602 0.467495
559 1 0.325635 0.130723 0.467419
560 1 0.325725 0.138991 0.457412
561 1 0.332642 0.126548 0.470466
563 1 0.339754 0.130753 0.468844
564 1 0.339615 0.138898 0.47501
565 1 0.347036 0.126762 0.469236
567 1 0.35388 0.130839 0.466959
568 1 0.353766 0.138988 0.465297
569 1 0.360816 0.126681 0.473687
571 1 0.368114 0.13084 0.47237
572 1 0.367979 0.138844 0.459528
573 1 0.374977 0.126606 0.470888
575 1 0.382065 0.130803 0.465081
576 1 0.382016 0.138799 0.455265
577 1 0.389026 0.126806 0.47115
579 1 0.39615 0.130903 0.468308
580 1 0.396136 0.139108 0.453615
581 1 0.403172 0.126696 0.484106
583 1 0.41022 0.130901 0.478983
584 1 0.410257 0.138993 0.459739
585 1 0.417254 0.126681 0.469982
587 1 0.424314 0.130837 0.458247
588 1 0.424187 0.138937 0.473207
589 1 0.43158 0.126631 0.45807
591 1 0.438571 0.130922 0.463873
592 1 0.438486 0.13911 0.474793
593 1 0.44563 0.126665 0.464307
595 1 0.452846 0.130612 0.467302
596 1 0.452462 0.138773 0.470812
597 1 0.46009 0.126677 0.464852
599 1 0.467067 0.130922 0.456324
600 1 0.466872 0.139013 0.450064
601 1 0.473888 0.126451 0.460954
603 1 0.481073 0.130574 0.453942
604 1 0.481029 0.138917 0.452109
605 1 0.488185 0.126747 0.452683
607 1 0.495318 0.130849 0.457944
608 1 0.495097 0.139012 0.460424
609 1 0.502244 0.126632 0.464598
611 1 0.509153 0.130892 0.469325
612 1 0.509074 0.138948 0.468688
613 1 0.516191 0.126815 0.469457
615 1 0.523366 0.130753 0.468166
616 1 0.523076 0.138804 0.470665
617 1 0.530408 0.126764 0.472185
619 1 0.537574 0.130547 0.476295
620 1 0.537334 0.138741 0.485437
621 1 0.544597 0.126455 0.476463
622 1 0.544466 0.142848 0.489969
623 1 0.551555 0.130561 0.497793
625 1 0.558559 0.126573 0.494502
643 1 0.622129 0.130707 0.498435
644 1 0.622184 0.139026 0.499341
647 1 0.636382 0.131135 0.493833
648 1 0.636412 0.139324 0.486723
649 1 0.643423 0.126943 0.488496
651 1 0.650369 0.130925 0.484845
652 1 0.650312 0.139268 0.481841
653 1 0.657629 0.126947 0.474807
655 1 0.66456 0.131201 0.471063
656 1 0.664412 0.139686 0.469379
657 1 0.671706 0.126954 0.470188
659 1 0.678357 0.131404 0.444972
660 1 0.678359 0.139171 0.463957
486 1 0.0647099 0.143371 0.482773
490 1 0.0784247 0.143289 0.492285
494 1 0.0926386 0.143222 0.49367
498 1 0.10664 0.14324 0.483016
671 1 0.0995484 0.155569 0.498049
673 1 0.106669 0.151323 0.493266
502 1 0.120758 0.142915 0.488259
506 1 0.134679 0.1431 0.475517
677 1 0.12068 0.151218 0.490815
679 1 0.12771 0.155286 0.48706
681 1 0.134863 0.151336 0.475352
683 1 0.141852 0.155537 0.470606
680 1 0.127886 0.1637 0.496851
684 1 0.142008 0.16355 0.490475
510 1 0.148639 0.142963 0.462749
685 1 0.148909 0.151181 0.463097
687 1 0.155886 0.155379 0.461121
689 1 0.162883 0.151173 0.459042
688 1 0.156032 0.163539 0.47329
518 1 0.176986 0.142994 0.432174
691 1 0.170099 0.155377 0.448958
693 1 0.176974 0.151239 0.437653
695 1 0.184246 0.155126 0.448455
692 1 0.170007 0.163428 0.469535
696 1 0.18426 0.163359 0.454015
522 1 0.191263 0.14299 0.427724
526 1 0.205414 0.142982 0.425059
697 1 0.191367 0.151121 0.443045
699 1 0.198293 0.155225 0.443661
701 1 0.205236 0.151146 0.435822
703 1 0.212484 0.15527 0.434487
700 1 0.198398 0.163292 0.45092
704 1 0.212591 0.163501 0.433588
530 1 0.219545 0.143123 0.423927
705 1 0.219631 0.151328 0.430383
707 1 0.226788 0.155144 0.430066
534 1 0.234042 0.143133 0.436204
709 1 0.234179 0.151305 0.442038
708 1 0.226949 0.163425 0.439988
538 1 0.248032 0.143108 0.467746
711 1 0.241147 0.155336 0.459331
713 1 0.248055 0.151349 0.4748
715 1 0.255124 0.155506 0.471241
712 1 0.241078 0.163413 0.468255
716 1 0.255124 0.16356 0.477704
542 1 0.262088 0.143059 0.483724
546 1 0.276226 0.142943 0.467835
717 1 0.262205 0.151393 0.484022
719 1 0.26921 0.155338 0.482652
721 1 0.27636 0.151053 0.485467
723 1 0.283205 0.155234 0.478576
720 1 0.269274 0.163492 0.480432
724 1 0.283385 0.163283 0.493351
550 1 0.290414 0.143207 0.448963
725 1 0.290504 0.151085 0.473245
727 1 0.297362 0.155172 0.469839
554 1 0.304512 0.143116 0.440153
729 1 0.304162 0.151334 0.45387
728 1 0.297293 0.163175 0.485717
558 1 0.318395 0.143123 0.457306
731 1 0.31144 0.155337 0.470467
733 1 0.318491 0.151245 0.463514
735 1 0.325665 0.15511 0.458166
562 1 0.33262 0.143272 0.465293
737 1 0.332813 0.151299 0.455134
732 1 0.311641 0.163395 0.476943
736 1 0.325812 0.163326 0.474735
566 1 0.346733 0.143024 0.463105
739 1 0.339658 0.155149 0.466901
741 1 0.34693 0.151157 0.461387
743 1 0.354008 0.155058 0.464769
740 1 0.339768 0.163234 0.474173
744 1 0.353986 0.163263 0.474958
570 1 0.360959 0.142983 0.457731
745 1 0.360986 0.151152 0.466624
747 1 0.367902 0.155294 0.47208
574 1 0.375157 0.143005 0.464214
749 1 0.375011 0.151281 0.46433
748 1 0.368058 0.163629 0.468894
578 1 0.389045 0.142936 0.458819
751 1 0.382047 0.155091 0.457519
753 1 0.389085 0.151067 0.449492
582 1 0.403304 0.142864 0.45648
755 1 0.396038 0.155113 0.461524
757 1 0.4034 0.151114 0.451275
752 1 0.382055 0.163367 0.484614
756 1 0.396281 0.16329 0.483275
586 1 0.417054 0.143136 0.461401
759 1 0.410388 0.155412 0.454847
761 1 0.417346 0.151299 0.457401
763 1 0.424364 0.155273 0.458869
760 1 0.41044 0.163546 0.468824
764 1 0.424539 0.163505 0.45679
590 1 0.431404 0.14302 0.474417
765 1 0.431339 0.151272 0.478113
767 1 0.438466 0.155038 0.471948
594 1 0.445754 0.143093 0.478864
769 1 0.445552 0.151143 0.480188
768 1 0.438614 0.163235 0.46717
598 1 0.459669 0.142897 0.457346
771 1 0.452579 0.155357 0.473697
773 1 0.459701 0.1512 0.462511
602 1 0.473955 0.142874 0.4453
775 1 0.466831 0.155121 0.467111
777 1 0.473943 0.151164 0.466412
772 1 0.452534 0.163519 0.481557
776 1 0.466726 0.163357 0.477243
606 1 0.488026 0.142865 0.46168
779 1 0.480866 0.155395 0.472644
781 1 0.487892 0.151059 0.480323
783 1 0.495005 0.155294 0.471576
780 1 0.480709 0.163422 0.478249
784 1 0.494987 0.163505 0.488173
610 1 0.50193 0.14311 0.467468
785 1 0.502017 0.151261 0.467485
787 1 0.509215 0.15538 0.483783
614 1 0.516095 0.143144 0.470935
789 1 0.516309 0.151268 0.472453
791 1 0.52337 0.155381 0.486051
792 1 0.5231 0.163637 0.496015
618 1 0.5302 0.143023 0.472489
793 1 0.53023 0.151232 0.482697
795 1 0.537439 0.155177 0.498457
797 1 0.544515 0.151089 0.494146
819 1 0.621865 0.155567 0.495668
646 1 0.629279 0.143251 0.499364
821 1 0.629003 0.151451 0.490763
823 1 0.636016 0.155636 0.487455
820 1 0.621705 0.163829 0.496933
824 1 0.636097 0.163735 0.489209
650 1 0.643377 0.143387 0.479801
825 1 0.64295 0.15151 0.476858
827 1 0.650172 0.155751 0.460658
654 1 0.657183 0.143597 0.464398
829 1 0.657407 0.151683 0.452662
831 1 0.66448 0.156017 0.439928
828 1 0.650071 0.164022 0.464411
832 1 0.664074 0.164073 0.442005
658 1 0.671471 0.14379 0.455097
833 1 0.671151 0.151763 0.427843
835 1 0.677907 0.156255 0.39233
836 1 0.677145 0.163952 0.356833
686 1 0.149098 0.167661 0.495603
690 1 0.163165 0.16731 0.476084
865 1 0.163405 0.175604 0.492291
694 1 0.177268 0.167572 0.460174
867 1 0.170444 0.179761 0.487616
869 1 0.177588 0.175753 0.476604
871 1 0.184621 0.179706 0.472204
868 1 0.170649 0.187937 0.495747
872 1 0.184536 0.187774 0.47175
698 1 0.191399 0.167285 0.462414
702 1 0.205373 0.167412 0.430097
873 1 0.191643 0.175651 0.466807
875 1 0.198586 0.179625 0.449807
877 1 0.205628 0.175587 0.437316
879 1 0.212783 0.179707 0.432782
876 1 0.19855 0.18784 0.456629
880 1 0.212571 0.187801 0.440613
706 1 0.219728 0.167419 0.430566
881 1 0.219742 0.175654 0.442273
883 1 0.226742 0.179617 0.460238
710 1 0.233996 0.167458 0.459457
885 1 0.233809 0.175857 0.464178
884 1 0.226582 0.18768 0.456322
714 1 0.248048 0.167706 0.476529
887 1 0.240934 0.179776 0.464691
889 1 0.248005 0.175819 0.476975
891 1 0.2552 0.180002 0.475927
888 1 0.241049 0.187988 0.457749
892 1 0.255006 0.188052 0.465625
718 1 0.262194 0.167437 0.473272
722 1 0.27649 0.167435 0.470659
893 1 0.26217 0.175844 0.475559
895 1 0.269374 0.179778 0.466829
897 1 0.276637 0.175709 0.472563
899 1 0.283547 0.179972 0.470065
896 1 0.269129 0.187878 0.462644
900 1 0.28342 0.188047 0.481835
726 1 0.290407 0.167387 0.482503
901 1 0.290492 0.175583 0.481014
903 1 0.297543 0.179613 0.494712
730 1 0.304443 0.167325 0.483993
905 1 0.304542 0.175376 0.491811
734 1 0.318604 0.167568 0.475456
907 1 0.311581 0.179476 0.496873
909 1 0.318496 0.175598 0.488441
911 1 0.325408 0.179681 0.49148
738 1 0.332829 0.167367 0.479746
913 1 0.332566 0.175572 0.484635
908 1 0.311481 0.187821 0.499007
742 1 0.346811 0.167342 0.485201
917 1 0.346514 0.175484 0.494216
919 1 0.353501 0.17961 0.474178
920 1 0.353617 0.187965 0.489377
746 1 0.360978 0.16745 0.46521
921 1 0.360753 0.175761 0.466343
923 1 0.367925 0.179642 0.486544
750 1 0.375158 0.167493 0.479612
925 1 0.375087 0.17559 0.48876
924 1 0.367694 0.187628 0.4913
754 1 0.389043 0.167246 0.496157
927 1 0.382177 0.179748 0.497953
758 1 0.403275 0.167348 0.478395
931 1 0.396094 0.179489 0.482622
933 1 0.403199 0.175435 0.473451
928 1 0.381899 0.187888 0.48637
932 1 0.395978 0.18776 0.478856
762 1 0.417416 0.167472 0.463253
935 1 0.410075 0.17957 0.468334
937 1 0.41725 0.175698 0.462978
939 1 0.424225 0.1797 0.46187
936 1 0.409973 0.187779 0.462263
940 1 0.424338 0.187926 0.45928
766 1 0.431692 0.167398 0.470388
941 1 0.431388 0.175534 0.470508
943 1 0.438453 0.179571 0.468441
770 1 0.445373 0.167355 0.481402
945 1 0.445539 0.175555 0.475138
944 1 0.43845 0.187859 0.47537
774 1 0.459528 0.167578 0.474345
947 1 0.452646 0.179604 0.476549
949 1 0.459572 0.175565 0.491312
778 1 0.473786 0.167572 0.478465
951 1 0.466658 0.179815 0.485649
953 1 0.473799 0.175547 0.489916
948 1 0.452587 0.187855 0.474438
952 1 0.466712 0.187937 0.485888
782 1 0.488027 0.167321 0.485761
955 1 0.480889 0.179469 0.499514
957 1 0.487916 0.175457 0.497276
786 1 0.501893 0.16769 0.49824
818 1 0.614671 0.167936 0.498446
991 1 0.607428 0.179855 0.497919
993 1 0.614408 0.175935 0.493946
992 1 0.60748 0.187943 0.494457
995 1 0.621351 0.180149 0.491707
822 1 0.629103 0.167877 0.495392
997 1 0.628667 0.175995 0.490096
999 1 0.635669 0.180281 0.481966
1001 1 0.642642 0.176137 0.464028
996 1 0.62163 0.188334 0.492818
1000 1 0.63564 0.188435 0.480786
826 1 0.642892 0.168058 0.467197
1003 1 0.649591 0.180455 0.448156
830 1 0.656966 0.168155 0.451889
1005 1 0.656841 0.176408 0.459646
1007 1 0.663582 0.180567 0.433604
1004 1 0.649708 0.188783 0.451882
1008 1 0.663622 0.188876 0.432391
834 1 0.670889 0.168597 0.407837
1009 1 0.670721 0.176567 0.420235
1011 1 0.677568 0.180845 0.437078
1012 1 0.677537 0.188861 0.43625
870 1 0.177786 0.191829 0.489193
1045 1 0.1777 0.199923 0.488559
1047 1 0.184603 0.204194 0.491578
1048 1 0.184635 0.212299 0.49482
874 1 0.191584 0.191999 0.465536
878 1 0.205557 0.191817 0.449253
1049 1 0.191862 0.20026 0.474983
1051 1 0.199001 0.204064 0.475008
1053 1 0.205947 0.199979 0.457574
1055 1 0.212867 0.204085 0.462358
1052 1 0.198776 0.212121 0.490863
1056 1 0.212886 0.212168 0.477162
882 1 0.219713 0.192094 0.447371
1057 1 0.21998 0.2002 0.457065
1059 1 0.226933 0.204184 0.469609
886 1 0.233738 0.191809 0.456573
1061 1 0.233631 0.199987 0.455025
1060 1 0.22696 0.212302 0.479345
890 1 0.248116 0.192063 0.457991
1063 1 0.240655 0.204167 0.454957
1065 1 0.247785 0.20021 0.461435
1067 1 0.255037 0.2044 0.467397
1064 1 0.240658 0.212484 0.460436
1068 1 0.25492 0.212484 0.466194
894 1 0.262166 0.192159 0.463273
898 1 0.276229 0.191825 0.478598
1069 1 0.262164 0.200218 0.4775
1071 1 0.269207 0.204462 0.476045
1073 1 0.276171 0.200155 0.475523
1075 1 0.283266 0.204421 0.46948
1072 1 0.269034 0.212593 0.486964
1076 1 0.283097 0.212389 0.480024
902 1 0.290549 0.191983 0.480185
1077 1 0.290322 0.200158 0.476629
1079 1 0.297355 0.204654 0.49126
1080 1 0.297262 0.212597 0.492878
1093 1 0.346673 0.2003 0.49674
922 1 0.36061 0.192 0.497013
1099 1 0.367972 0.204223 0.49312
926 1 0.374767 0.191822 0.49163
1101 1 0.374849 0.199953 0.490728
1100 1 0.367648 0.212397 0.493056
930 1 0.388981 0.191837 0.482434
1103 1 0.381918 0.204186 0.492568
1105 1 0.388987 0.200232 0.49068
934 1 0.402963 0.191931 0.475503
1107 1 0.395976 0.20425 0.48239
1109 1 0.402912 0.200239 0.481628
1104 1 0.381799 0.212469 0.48844
1108 1 0.396015 0.212391 0.484689
938 1 0.417326 0.191921 0.464428
1111 1 0.410134 0.204105 0.488433
1113 1 0.41712 0.2 0.483478
1115 1 0.424264 0.204131 0.481023
1112 1 0.410032 0.212239 0.492481
1116 1 0.424315 0.212376 0.490362
942 1 0.431517 0.192086 0.46772
1117 1 0.431437 0.200186 0.479162
1119 1 0.438333 0.204012 0.483455
946 1 0.445641 0.191874 0.471081
1121 1 0.445492 0.200029 0.480886
1120 1 0.438426 0.212385 0.482997
950 1 0.459692 0.192018 0.493667
1123 1 0.452453 0.204169 0.488949
954 1 0.473698 0.191933 0.495246
994 1 0.614479 0.192325 0.495098
1169 1 0.614452 0.200351 0.496665
1171 1 0.621528 0.204392 0.490192
998 1 0.628548 0.192374 0.481095
1002 1 0.642543 0.192619 0.470671
1173 1 0.628445 0.200414 0.468368
1175 1 0.635285 0.204813 0.457137
1177 1 0.642379 0.200853 0.454404
1172 1 0.621444 0.212684 0.488708
1176 1 0.635294 0.212911 0.456698
1179 1 0.64931 0.204698 0.418321
1006 1 0.656521 0.193077 0.434524
1181 1 0.656501 0.200919 0.410334
1183 1 0.663205 0.204966 0.378745
1180 1 0.649142 0.212937 0.397131
1184 1 0.662952 0.213177 0.347325
1010 1 0.670481 0.193412 0.419582
1185 1 0.670414 0.201115 0.383576
1187 1 0.677121 0.205559 0.340518
1188 1 0.676499 0.21329 0.304823
1050 1 0.191859 0.216238 0.497683
1054 1 0.205995 0.216396 0.492879
1058 1 0.219704 0.21631 0.484576
1233 1 0.21971 0.224386 0.488217
1235 1 0.226846 0.228522 0.480904
1062 1 0.233675 0.216637 0.468309
1237 1 0.23393 0.224564 0.469848
1236 1 0.226946 0.236739 0.492186
1066 1 0.24785 0.216612 0.460275
1239 1 0.240967 0.228761 0.473934
1241 1 0.248018 0.22465 0.469778
1243 1 0.25475 0.228979 0.469028
1245 1 0.261887 0.224909 0.481609
1240 1 0.241031 0.236892 0.478083
1244 1 0.254808 0.237103 0.466346
1070 1 0.261915 0.216584 0.481723
1074 1 0.276184 0.216574 0.495081
1247 1 0.269008 0.228599 0.498059
1078 1 0.290222 0.216491 0.48967
1253 1 0.290478 0.224616 0.496674
1255 1 0.297399 0.228464 0.499641
1082 1 0.304426 0.216306 0.498816
1098 1 0.360614 0.216651 0.497211
1275 1 0.367994 0.228854 0.493965
1102 1 0.374697 0.216574 0.490898
1277 1 0.374961 0.224646 0.481381
1106 1 0.389073 0.216422 0.484323
1279 1 0.38209 0.228868 0.481077
1281 1 0.389052 0.224622 0.481797
1110 1 0.403005 0.216269 0.487753
1283 1 0.396235 0.228771 0.476974
1285 1 0.403125 0.224526 0.477452
1280 1 0.381965 0.237031 0.488554
1284 1 0.396171 0.237157 0.482647
1114 1 0.41703 0.216438 0.493091
1287 1 0.410105 0.228676 0.48499
1291 1 0.424212 0.228877 0.498089
1288 1 0.409996 0.236833 0.485234
1118 1 0.431452 0.216468 0.482502
1293 1 0.431027 0.224562 0.487125
1295 1 0.438272 0.22856 0.48444
1122 1 0.445544 0.216395 0.484748
1297 1 0.445594 0.224469 0.489386
1296 1 0.438484 0.236729 0.496755
1299 1 0.452629 0.228675 0.484783
1300 1 0.452712 0.236912 0.492665
1347 1 0.621592 0.229055 0.499402
1174 1 0.628338 0.216836 0.471062
1178 1 0.642107 0.216916 0.418832
1349 1 0.628554 0.224951 0.472813
1351 1 0.635446 0.229213 0.45236
1353 1 0.64227 0.225189 0.421377
1352 1 0.635698 0.237384 0.467979
1355 1 0.649324 0.229101 0.410107
1182 1 0.656069 0.217024 0.374667
1357 1 0.65599 0.225101 0.370184
1359 1 0.662469 0.229379 0.327563
1356 1 0.649596 0.237264 0.420977
1360 1 0.662834 0.237598 0.339679
1186 1 0.669348 0.217315 0.297103
1361 1 0.668875 0.225253 0.27785
1363 1 0.674477 0.230108 0.214354
1238 1 0.233975 0.240991 0.489566
1413 1 0.23401 0.249276 0.486986
1242 1 0.247806 0.241052 0.464321
1415 1 0.240785 0.253628 0.480926
1417 1 0.247828 0.249367 0.472638
1419 1 0.25489 0.253276 0.482681
1416 1 0.241051 0.261817 0.492662
1420 1 0.254991 0.261523 0.488611
1246 1 0.261913 0.240954 0.47669
1421 1 0.261976 0.249432 0.479867
1443 1 0.339528 0.253553 0.492404
1444 1 0.339556 0.261602 0.488953
1448 1 0.354011 0.261626 0.494839
1282 1 0.389067 0.240903 0.498341
1286 1 0.403302 0.241099 0.497458
1465 1 0.417051 0.249224 0.499673
1294 1 0.431102 0.240992 0.494891
1469 1 0.431268 0.249161 0.496843
1471 1 0.438416 0.253105 0.49236
1298 1 0.44549 0.240888 0.496712
1472 1 0.438361 0.261303 0.495194
1302 1 0.459773 0.240957 0.499647
1350 1 0.628763 0.241559 0.49849
1354 1 0.642922 0.241108 0.463829
1529 1 0.642923 0.249389 0.479845
1531 1 0.649916 0.253356 0.455003
1358 1 0.65628 0.24153 0.389339
1533 1 0.656439 0.249573 0.410178
1535 1 0.663527 0.253468 0.403107
1532 1 0.650083 0.26152 0.47409
1536 1 0.664121 0.26138 0.438997
1362 1 0.669676 0.24188 0.311081
1537 1 0.670328 0.249523 0.353283
1364 1 0.675021 0.238106 0.227334
1539 1 0.677391 0.253857 0.348837
1540 1 0.677467 0.261667 0.383364
1418 1 0.248024 0.265755 0.490516
1593 1 0.248013 0.273909 0.498072
1442 1 0.332386 0.265532 0.489756
1617 1 0.332383 0.273571 0.491059
1446 1 0.346758 0.265709 0.490973
1619 1 0.339586 0.277729 0.486614
1621 1 0.346666 0.273786 0.481426
1623 1 0.353542 0.27786 0.498817
1655 1 0.466729 0.277388 0.491037
1657 1 0.473735 0.273412 0.493258
1656 1 0.466637 0.285423 0.489886
1486 1 0.487845 0.26518 0.49804
1659 1 0.480767 0.277293 0.49068
1661 1 0.487986 0.273375 0.485856
1663 1 0.494877 0.277247 0.487984
1660 1 0.480656 0.285597 0.498248
1664 1 0.494697 0.285431 0.481189
1665 1 0.501862 0.273371 0.496427
1671 1 0.523282 0.277397 0.499606
1668 1 0.509135 0.285494 0.478364
1672 1 0.523164 0.285566 0.492352
1676 1 0.53763 0.285655 0.497313
1534 1 0.657197 0.265635 0.464056
1538 1 0.670997 0.265669 0.434722
1713 1 0.671088 0.27343 0.488946
1542 1 0.0647665 0.290043 0.491726
1717 1 0.0649019 0.297597 0.452967
1721 1 0.0786254 0.29817 0.473594
1725 1 0.092773 0.298221 0.487203
1719 1 0.0716904 0.302512 0.451767
1723 1 0.085817 0.302357 0.474635
1554 1 0.106927 0.289952 0.481433
1556 1 0.11417 0.285982 0.488408
1729 1 0.106933 0.298153 0.463413
1727 1 0.0999576 0.302219 0.471101
1731 1 0.114009 0.302298 0.469635
1558 1 0.12111 0.290042 0.485932
1733 1 0.121214 0.298399 0.478062
1737 1 0.135137 0.298274 0.498158
1735 1 0.128228 0.302198 0.473416
1739 1 0.142022 0.30219 0.498915
1759 1 0.212742 0.301969 0.484036
1761 1 0.219847 0.298287 0.489252
1590 1 0.23396 0.290015 0.49826