ITEM: TIMESTEP
0
ITEM: NUMBER OF ATOMS
1912
ITEM: BOX BOUNDS ss ss pp
-5.8306238355871343e-01 5.6748994292158962e+01
-3.5200000000000006e-03 3.4849742176873065e+01
0.0000000000000000e+00 9.9560630400000001e+00
ITEM: ATOMS id type xs ys zs
17 2 0.0101699 0.0358081 0.125
18 2 0.0408683 0.000100995 0
19 2 0.0715666 0.0358081 0.125
21 2 0.102265 0.000100995 0
22 2 0.132963 0.0358081 0.125
24 2 0.163662 0.000100995 0
25 2 0.19436 0.0358081 0.125
27 2 0.225058 0.000100995 0
28 2 0.255757 0.0358081 0.125
30 2 0.286455 0.000100995 0
31 2 0.317153 0.0358081 0.125
33 2 0.347852 0.000100995 0
34 2 0.37855 0.0358081 0.125
36 2 0.409249 0.000100995 0
37 2 0.439947 0.0358081 0.125
39 2 0.470645 0.000100995 0
40 2 0.501344 0.0358081 0.125
42 2 0.532042 0.000100995 0
43 2 0.56274 0.0358081 0.125
45 2 0.593439 0.000100995 0
46 2 0.624137 0.0358081 0.125
48 2 0.654835 0.000100995 0
49 2 0.685534 0.0358081 0.125
51 2 0.716232 0.000100995 0
52 2 0.746931 0.0358081 0.125
54 2 0.777629 0.000100995 0
55 2 0.808327 0.0358081 0.125
57 2 0.839026 0.000100995 0
58 2 0.869724 0.0358081 0.125
60 2 0.900422 0.000100995 0
61 2 0.931121 0.0358081 0.125
63 2 0.961819 0.000100995 0
64 2 0.992517 0.0358081 0.125
148 2 0.0101699 0.107222 0.125
20 2 0.0408683 0.0715151 0
151 2 0.0715666 0.107222 0.125
23 2 0.102265 0.0715151 0
155 2 0.132963 0.107222 0.125
26 2 0.163662 0.0715151 0
159 2 0.19436 0.107222 0.125
29 2 0.225058 0.0715151 0
163 2 0.255757 0.107222 0.125
32 2 0.286455 0.0715151 0
167 2 0.317153 0.107222 0.125
35 2 0.347852 0.0715151 0
171 2 0.37855 0.107222 0.125
38 2 0.409249 0.0715151 0
175 2 0.439947 0.107222 0.125
41 2 0.470645 0.0715151 0
44 2 0.532042 0.0715151 0
179 2 0.501344 0.107222 0.125
183 2 0.56274 0.107222 0.125
47 2 0.593439 0.0715151 0
187 2 0.624137 0.107222 0.125
50 2 0.654835 0.0715151 0
191 2 0.685534 0.107222 0.125
53 2 0.716232 0.0715151 0
195 2 0.746931 0.107222 0.125
56 2 0.777629 0.0715151 0
59 2 0.839026 0.0715151 0
199 2 0.808327 0.107222 0.125
203 2 0.869724 0.107222 0.125
62 2 0.900422 0.0715151 0
207 2 0.931121 0.107222 0.125
65 2 0.961819 0.0715151 0
211 2 0.992517 0.107222 0.125
214 1 9.82347e-05 0.17794 0.106078
215 1 0.039051 0.142497 0.013589
216 1 0.0703994 0.175979 0.130296
218 1 0.101036 0.140825 0.00108285
219 1 0.132503 0.178323 0.123363
161 1 0.163409 0.145154 0.249591
222 1 0.194406 0.178923 0.121219
165 1 0.226086 0.145409 0.23557
225 1 0.25694 0.18234 0.127802
227 1 0.286069 0.1443 0.00912415
228 1 0.31673 0.177362 0.137365
230 1 0.347468 0.140921 0.00974351
231 1 0.378599 0.175055 0.138279
233 1 0.409678 0.141662 0.00969316
234 1 0.44013 0.180499 0.119504
181 1 0.470156 0.141727 0.244731
237 1 0.50093 0.178769 0.10725
185 1 0.531531 0.142848 0.249685
240 1 0.561057 0.177601 0.125617
242 1 0.593682 0.144286 0.00601758
243 1 0.624939 0.176836 0.12692
245 1 0.657042 0.142117 0.00944176
246 1 0.688719 0.176928 0.127291
193 1 0.656186 0.142117 0.249888
249 1 0.744275 0.178193 0.129739
252 1 0.805873 0.178174 0.134186
201 1 0.774781 0.14168 0.246688
254 1 0.839518 0.141661 0.000421111
205 1 0.83833 0.140966 0.249114
255 1 0.867731 0.176353 0.126926
209 1 0.90055 0.143956 0.238796
258 1 0.92864 0.178468 0.113128
261 1 0.991623 0.173498 0.139445
217 1 0.0360549 0.211153 0.00993936
412 1 0.00857984 0.245581 0.157603
415 1 0.0709397 0.244882 0.129401
220 1 0.1003 0.209536 0.00275415
419 1 0.130706 0.249237 0.123777
422 1 0.162438 0.214438 0.237446
426 1 0.225408 0.218175 0.239321
229 1 0.288255 0.217885 0.00926046
232 1 0.34797 0.213144 0.00478936
435 1 0.37783 0.248777 0.129156
235 1 0.407805 0.212738 0.00519317
442 1 0.471269 0.214717 0.244934
446 1 0.531737 0.212327 0.240022
447 1 0.562211 0.24679 0.12839
244 1 0.593318 0.213096 0.00755455
451 1 0.625838 0.24704 0.126876
454 1 0.658046 0.213104 0.23777
459 1 0.745359 0.249665 0.136012
253 1 0.774935 0.211082 0.0180093
256 1 0.838146 0.211534 0.00720401
463 1 0.808636 0.249594 0.133944
467 1 0.867552 0.247841 0.116931
470 1 0.899259 0.213155 0.241695
471 1 0.927617 0.249411 0.11989
474 1 0.958952 0.212964 0.242915
475 1 0.992394 0.241771 0.116069
479 1 0.044498 0.280806 0.0206809
482 1 0.0991996 0.280174 0.00429205
421 1 0.101468 0.285787 0.246546
425 1 0.162818 0.285259 0.233621
423 1 0.19426 0.251302 0.110724
427 1 0.257028 0.255282 0.123177
433 1 0.288029 0.290156 0.246194
431 1 0.319485 0.251322 0.13354
494 1 0.347483 0.285405 0.00365678
497 1 0.408582 0.282278 0.00439833
441 1 0.40845 0.284875 0.247689
439 1 0.440094 0.25017 0.128236
443 1 0.50131 0.251746 0.112319
503 1 0.534062 0.286665 0.00232892
506 1 0.594077 0.280952 0.00838614
453 1 0.595711 0.283748 0.242017
455 1 0.686237 0.251504 0.114073
457 1 0.657665 0.284694 0.245196
461 1 0.714671 0.285185 0.243323
515 1 0.777608 0.283608 0.00254552
465 1 0.778204 0.286573 0.248909
518 1 0.838547 0.287074 0.000294463
521 1 0.896968 0.289047 0.00694266
473 1 0.897505 0.284532 0.247624
477 1 0.961028 0.284829 0.239453
525 1 0.994262 0.311288 0.119942
478 1 0.0146969 0.319532 0.129677
481 1 0.0443932 0.353898 0.0147122
480 1 0.0728874 0.319165 0.130096
682 1 0.101607 0.356996 0.249003
483 1 0.130466 0.319955 0.113803
686 1 0.164639 0.354283 0.243072
486 1 0.193055 0.322075 0.126973
490 1 0.224652 0.354835 0.0195497
489 1 0.257529 0.32258 0.130161
493 1 0.288272 0.35464 0.0162379
492 1 0.318795 0.323868 0.119497
495 1 0.379845 0.3203 0.116528
698 1 0.349362 0.356928 0.235455
702 1 0.408994 0.358885 0.232348
498 1 0.440499 0.320662 0.13145
502 1 0.471203 0.355742 0.0166247
501 1 0.502813 0.320031 0.125336
505 1 0.533511 0.359211 0.00312735
710 1 0.533236 0.353489 0.248864
504 1 0.564839 0.320217 0.124645
508 1 0.59519 0.357352 0.00515482
507 1 0.626052 0.321534 0.129374
510 1 0.685239 0.322875 0.126582
511 1 0.654558 0.358685 0.000504623
722 1 0.71545 0.359548 0.24555
513 1 0.746864 0.316953 0.108485
517 1 0.779158 0.355784 0.0183444
516 1 0.809635 0.323292 0.131754
520 1 0.839025 0.357796 0.00127214
519 1 0.867463 0.3234 0.125327
523 1 0.898941 0.363081 0.00282161
522 1 0.930908 0.320373 0.127497
526 1 0.962373 0.354465 0.0257305
676 1 0.0131541 0.390938 0.12806
743 1 0.0423167 0.421068 0.00663926
679 1 0.0713902 0.392652 0.13281
681 1 0.0404564 0.433657 0.249202
685 1 0.104259 0.425655 0.247577
683 1 0.132378 0.390775 0.12394
687 1 0.191097 0.391235 0.130091
689 1 0.162761 0.427186 0.248239
752 1 0.223374 0.425353 0.0135103
691 1 0.255312 0.390305 0.148749
755 1 0.287526 0.427662 0.0208702
695 1 0.318293 0.392193 0.136869
699 1 0.378668 0.392484 0.102151
703 1 0.439524 0.393521 0.128663
764 1 0.469626 0.430166 0.00294492
707 1 0.501473 0.392279 0.121357
767 1 0.533127 0.430999 0.00475339
713 1 0.53266 0.429945 0.249846
711 1 0.562108 0.394607 0.126282
717 1 0.593316 0.426346 0.246741
715 1 0.624749 0.393089 0.131014
719 1 0.684502 0.393716 0.119499
723 1 0.746947 0.38929 0.121799
729 1 0.774858 0.427456 0.244247
727 1 0.808212 0.394401 0.130795
782 1 0.836641 0.430295 0.0215647
731 1 0.867271 0.396619 0.131585
785 1 0.900468 0.429201 0.017677
735 1 0.931965 0.394953 0.130529
739 1 0.995971 0.38694 0.116582
788 1 0.965483 0.428309 0.00534717
741 1 0.966467 0.43596 0.247211
742 1 0.00117934 0.463586 0.132269
744 1 0.0727815 0.462601 0.118181
946 1 0.101297 0.497612 0.23836
747 1 0.131809 0.462043 0.119274
750 1 0.191386 0.460546 0.118625
753 1 0.255362 0.462032 0.129266
757 1 0.284543 0.499203 0.00063305
756 1 0.318881 0.463396 0.133631
759 1 0.379226 0.463892 0.123257
760 1 0.347132 0.499969 0.00420975
762 1 0.438303 0.463656 0.121484
970 1 0.468945 0.499492 0.248483
765 1 0.501658 0.468499 0.127474
768 1 0.562868 0.462554 0.115791
771 1 0.624414 0.464981 0.114117
774 1 0.681915 0.464148 0.12895
778 1 0.716316 0.49821 0.0117337
777 1 0.746244 0.462042 0.122677
780 1 0.806045 0.465794 0.13726
783 1 0.868903 0.466154 0.138213
786 1 0.932599 0.464707 0.124906
789 1 0.999902 0.46147 0.104619
940 1 0.0158921 0.534056 0.132521
943 1 0.072148 0.536104 0.120973
942 1 0.045694 0.500817 0.248738
947 1 0.13296 0.537677 0.12798
950 1 0.162608 0.500171 0.23447
951 1 0.195325 0.534035 0.118041
955 1 0.253704 0.532143 0.11438
958 1 0.28619 0.500331 0.246397
959 1 0.317893 0.537211 0.120726
963 1 0.377476 0.537872 0.124395
962 1 0.350772 0.500867 0.24688
967 1 0.43657 0.536027 0.115507
766 1 0.468479 0.50254 0.00411341
971 1 0.499674 0.537021 0.12152
974 1 0.532378 0.501401 0.245091
975 1 0.563911 0.535423 0.111955
978 1 0.593016 0.500088 0.225339
979 1 0.62288 0.53469 0.119224
983 1 0.685995 0.536842 0.124604
987 1 0.74635 0.533294 0.12199
991 1 0.806754 0.53534 0.141017
784 1 0.838119 0.501196 0.0155441
995 1 0.870253 0.538093 0.127083
787 1 0.900065 0.500621 0.0037902
999 1 0.932167 0.539035 0.115839
1002 1 0.960721 0.503738 0.233535
1003 1 0.994985 0.5391 0.130658
1006 1 0.0109828 0.607644 0.134519
1008 1 0.0700822 0.611127 0.13264
945 1 0.0432658 0.575687 0.24924
1010 1 0.101044 0.576329 0.0105482
1011 1 0.133455 0.610107 0.129649
1013 1 0.161852 0.571997 0.0019425
1014 1 0.195996 0.606518 0.143428
1016 1 0.223507 0.568486 0.00799218
957 1 0.224889 0.569462 0.24942
1017 1 0.255233 0.606047 0.119103
961 1 0.288323 0.570564 0.230604
1020 1 0.317242 0.607253 0.0962811
1023 1 0.376951 0.609149 0.114552
969 1 0.40949 0.571043 0.247131
1026 1 0.439587 0.607 0.110996
1029 1 0.498941 0.609598 0.127288
973 1 0.469093 0.570242 0.235091
1031 1 0.531762 0.573956 0.00187816
1032 1 0.565282 0.605955 0.117444
981 1 0.594692 0.572146 0.241188
1035 1 0.624575 0.606834 0.124202
1037 1 0.654864 0.573973 0.00614484
1038 1 0.68717 0.605984 0.12174
989 1 0.717946 0.571123 0.241317
1041 1 0.74898 0.608647 0.12465
993 1 0.776448 0.570233 0.241946
1044 1 0.807727 0.60427 0.115497
1046 1 0.839926 0.568776 0.00179795
997 1 0.838281 0.56941 0.248133
1047 1 0.869349 0.607478 0.118099
1001 1 0.902766 0.573142 0.245412
1050 1 0.931424 0.611211 0.129109
1053 1 0.99895 0.610041 0.114007
1204 1 0.00824065 0.680998 0.127649
1009 1 0.0423683 0.645948 0.00306239
1207 1 0.0700396 0.682843 0.13226
1210 1 0.102684 0.642346 0.248171
1211 1 0.133413 0.680048 0.133624
1015 1 0.163454 0.646221 0.0222437
1215 1 0.195999 0.67737 0.141314
1018 1 0.22631 0.640917 0.000984144
1219 1 0.255891 0.674476 0.122907
1222 1 0.287103 0.641565 0.243005
1223 1 0.317272 0.676849 0.114037
1227 1 0.375899 0.680554 0.121793
1226 1 0.34718 0.642262 0.240792
1230 1 0.409709 0.64571 0.249741
1231 1 0.440381 0.678301 0.115529
1234 1 0.469183 0.644542 0.248879
1033 1 0.532828 0.643495 0.000281094
1235 1 0.501671 0.678623 0.114821
1238 1 0.531804 0.6404 0.249332
1239 1 0.565803 0.675087 0.129732
1036 1 0.595148 0.64116 0.00470659
1243 1 0.624803 0.67596 0.134163
1039 1 0.655059 0.64385 0.000531732
1247 1 0.686442 0.674879 0.123608
1246 1 0.656542 0.640543 0.243164
1042 1 0.717367 0.643637 0.00999613
1251 1 0.748588 0.680512 0.145542
1254 1 0.778854 0.645986 0.249852
1255 1 0.811006 0.675471 0.127818
1258 1 0.839083 0.639706 0.244684
1259 1 0.869627 0.677148 0.123873
1262 1 0.90049 0.644166 0.245676
1263 1 0.931303 0.679036 0.114952
1054 1 0.963731 0.642541 0.00770578
1267 1 0.996921 0.683975 0.0743779
1271 1 0.0402472 0.718281 0.00972828
1274 1 0.101465 0.716194 0.0101
1277 1 0.165361 0.717071 0.0110672
1278 1 0.195137 0.749339 0.1291
1281 1 0.255714 0.746188 0.12052
1284 1 0.317355 0.74932 0.12808
1229 1 0.348559 0.7153 0.246471
1233 1 0.406649 0.713672 0.238988
1290 1 0.438679 0.749635 0.122367
1237 1 0.47054 0.713446 0.237577
1293 1 0.501385 0.74976 0.116787
1241 1 0.533614 0.710432 0.24158
1296 1 0.563489 0.746617 0.127697
1298 1 0.594069 0.714492 0.00285575
1245 1 0.594432 0.712063 0.245835
1299 1 0.624867 0.746537 0.121132
1301 1 0.656008 0.71455 0.00750276
1302 1 0.686751 0.749798 0.128439
1304 1 0.71912 0.712835 0.00592402
1253 1 0.716986 0.716307 0.245048
1307 1 0.779434 0.712003 0.0121144
1308 1 0.811299 0.748917 0.136171
1311 1 0.869459 0.747689 0.125222
1265 1 0.900654 0.714426 0.249193
1269 1 0.960405 0.714235 0.239377
1270 1 0.00811132 0.756717 0.136863
1272 1 0.0713568 0.752684 0.139503
1470 1 0.0404413 0.789934 0.237806
1276 1 0.102237 0.784672 0.00346479
1275 1 0.132996 0.750293 0.146825
1279 1 0.165652 0.785408 0.00872326
1482 1 0.226927 0.783103 0.248672
1287 1 0.374836 0.75181 0.115809
1490 1 0.346703 0.784848 0.246309
1494 1 0.407961 0.785791 0.247066
1498 1 0.471798 0.784856 0.23411
1502 1 0.533514 0.782976 0.233873
1300 1 0.593749 0.784294 0.00357669
1510 1 0.654461 0.782838 0.238427
1514 1 0.71625 0.784395 0.240442
1305 1 0.747676 0.751907 0.127217
1518 1 0.780297 0.785495 0.245652
1522 1 0.839682 0.787019 0.247873
1315 1 0.897359 0.784119 0.00903068
1314 1 0.929494 0.754465 0.130466
1530 1 0.958836 0.786949 0.249884
1317 1 0.990809 0.754026 0.129123
1318 1 0.964428 0.787694 0.00849801
1468 1 0.00202206 0.825466 0.150536
1471 1 0.0726049 0.820874 0.121605
1473 1 0.0404411 0.857243 0.246151
1538 1 0.102803 0.857783 0.0105073
1475 1 0.134213 0.819828 0.130917
1479 1 0.195003 0.820916 0.138804
1544 1 0.225408 0.855085 0.00952979
1483 1 0.256737 0.820001 0.128396
1547 1 0.286411 0.856708 0.0018984
1487 1 0.316286 0.822868 0.127467
1550 1 0.347293 0.859625 0.000292662
1491 1 0.377608 0.820455 0.114755
1553 1 0.409818 0.857005 0.00112635
1497 1 0.409414 0.854833 0.242655
1495 1 0.439289 0.822451 0.121682
1501 1 0.471394 0.856522 0.242693
1499 1 0.501605 0.818579 0.117788
1505 1 0.531214 0.855344 0.240004
1503 1 0.562423 0.821194 0.131516
1562 1 0.593993 0.856199 0.0056816
1507 1 0.624319 0.819362 0.127751
1511 1 0.685669 0.819661 0.119248
1565 1 0.654999 0.856004 0.00885963
1568 1 0.715288 0.855753 0.00302545
1515 1 0.747231 0.821408 0.13664
1571 1 0.779074 0.857271 0.00926665
1521 1 0.778604 0.856544 0.249103
1519 1 0.807929 0.821851 0.118374
1525 1 0.838899 0.859352 0.244665
1523 1 0.867956 0.822314 0.117715
1529 1 0.899439 0.858369 0.242807
1527 1 0.930942 0.826066 0.122183
1531 1 0.996509 0.823998 0.112465
1580 1 0.961783 0.856624 0.00377553
1534 3 0.0101699 0.892778 0.125
1537 3 0.0408683 0.928485 0
1536 3 0.0715666 0.892778 0.125
1540 3 0.102265 0.928485 0
1539 3 0.132963 0.892778 0.125
1543 3 0.163662 0.928485 0
1542 3 0.19436 0.892778 0.125
1546 3 0.225058 0.928485 0
1545 3 0.255757 0.892778 0.125
1549 3 0.286455 0.928485 0
1548 3 0.317153 0.892778 0.125
1552 3 0.347852 0.928485 0
1551 3 0.37855 0.892778 0.125
1555 3 0.409249 0.928485 0
1554 3 0.439947 0.892778 0.125
1558 3 0.470645 0.928485 0
1557 3 0.501344 0.892778 0.125
1561 3 0.532042 0.928485 0
1560 3 0.56274 0.892778 0.125
1564 3 0.593439 0.928485 0
1563 3 0.624137 0.892778 0.125
1566 3 0.685534 0.892778 0.125
1567 3 0.654835 0.928485 0
1570 3 0.716232 0.928485 0
1569 3 0.746931 0.892778 0.125
1573 3 0.777629 0.928485 0
1572 3 0.808327 0.892778 0.125
1576 3 0.839026 0.928485 0
1575 3 0.869724 0.892778 0.125
1579 3 0.900422 0.928485 0
1578 3 0.931121 0.892778 0.125
1581 3 0.992517 0.892778 0.125
1582 3 0.961819 0.928485 0
1732 3 0.0101699 0.964192 0.125
1798 3 0.0408683 0.999899 0
1735 3 0.0715666 0.964192 0.125
1799 3 0.102265 0.999899 0
1739 3 0.132963 0.964192 0.125
1800 3 0.163662 0.999899 0
1743 3 0.19436 0.964192 0.125
1801 3 0.225058 0.999899 0
1747 3 0.255757 0.964192 0.125
1802 3 0.286455 0.999899 0
1751 3 0.317153 0.964192 0.125
1803 3 0.347852 0.999899 0
1755 3 0.37855 0.964192 0.125
1804 3 0.409249 0.999899 0
1759 3 0.439947 0.964192 0.125
1805 3 0.470645 0.999899 0
1763 3 0.501344 0.964192 0.125
1806 3 0.532042 0.999899 0
1767 3 0.56274 0.964192 0.125
1807 3 0.593439 0.999899 0
1771 3 0.624137 0.964192 0.125
1775 3 0.685534 0.964192 0.125
1808 3 0.654835 0.999899 0
1809 3 0.716232 0.999899 0
1779 3 0.746931 0.964192 0.125
1810 3 0.777629 0.999899 0
1783 3 0.808327 0.964192 0.125
1811 3 0.839026 0.999899 0
1787 3 0.869724 0.964192 0.125
1812 3 0.900422 0.999899 0
1791 3 0.931121 0.964192 0.125
1795 3 0.992517 0.964192 0.125
1813 3 0.961819 0.999899 0
82 2 0.0101699 0.0358081 0.375
1 2 0.0408683 0.000100995 0.25
85 2 0.0715666 0.0358081 0.375
2 2 0.102265 0.000100995 0.25
89 2 0.132963 0.0358081 0.375
3 2 0.163662 0.000100995 0.25
93 2 0.19436 0.0358081 0.375
4 2 0.225058 0.000100995 0.25
97 2 0.255757 0.0358081 0.375
5 2 0.286455 0.000100995 0.25
101 2 0.317153 0.0358081 0.375
6 2 0.347852 0.000100995 0.25
105 2 0.37855 0.0358081 0.375
7 2 0.409249 0.000100995 0.25
109 2 0.439947 0.0358081 0.375
8 2 0.470645 0.000100995 0.25
9 2 0.532042 0.000100995 0.25
113 2 0.501344 0.0358081 0.375
117 2 0.56274 0.0358081 0.375
10 2 0.593439 0.000100995 0.25
121 2 0.624137 0.0358081 0.375
11 2 0.654835 0.000100995 0.25
125 2 0.685534 0.0358081 0.375
12 2 0.716232 0.000100995 0.25
129 2 0.746931 0.0358081 0.375
13 2 0.777629 0.000100995 0.25
14 2 0.839026 0.000100995 0.25
133 2 0.808327 0.0358081 0.375
137 2 0.869724 0.0358081 0.375
15 2 0.900422 0.000100995 0.25
141 2 0.931121 0.0358081 0.375
16 2 0.961819 0.000100995 0.25
145 2 0.992517 0.0358081 0.375
149 2 0.0101699 0.107222 0.375
150 2 0.0408683 0.0715151 0.25
152 2 0.0715666 0.107222 0.375
154 2 0.102265 0.0715151 0.25
156 2 0.132963 0.107222 0.375
158 2 0.163662 0.0715151 0.25
160 2 0.19436 0.107222 0.375
162 2 0.225058 0.0715151 0.25
164 2 0.255757 0.107222 0.375
166 2 0.286455 0.0715151 0.25
168 2 0.317153 0.107222 0.375
170 2 0.347852 0.0715151 0.25
172 2 0.37855 0.107222 0.375
174 2 0.409249 0.0715151 0.25
176 2 0.439947 0.107222 0.375
178 2 0.470645 0.0715151 0.25
180 2 0.501344 0.107222 0.375
182 2 0.532042 0.0715151 0.25
184 2 0.56274 0.107222 0.375
186 2 0.593439 0.0715151 0.25
188 2 0.624137 0.107222 0.375
190 2 0.654835 0.0715151 0.25
192 2 0.685534 0.107222 0.375
194 2 0.716232 0.0715151 0.25
196 2 0.746931 0.107222 0.375
198 2 0.777629 0.0715151 0.25
200 2 0.808327 0.107222 0.375
202 2 0.839026 0.0715151 0.25
204 2 0.869724 0.107222 0.375
206 2 0.900422 0.0715151 0.25
208 2 0.931121 0.107222 0.375
210 2 0.961819 0.0715151 0.25
212 2 0.992517 0.107222 0.375
346 1 0.0110811 0.181977 0.367806
153 1 0.0407186 0.140113 0.263703
349 1 0.0721141 0.178029 0.38624
157 1 0.102524 0.140964 0.254539
353 1 0.130345 0.17853 0.363631
356 1 0.162256 0.141938 0.491047
357 1 0.193959 0.17827 0.359488
360 1 0.224892 0.144772 0.490134
361 1 0.2568 0.184718 0.371234
169 1 0.286575 0.146876 0.265745
365 1 0.318455 0.179717 0.391589
173 1 0.348751 0.1421 0.251661
369 1 0.380843 0.176902 0.380138
177 1 0.409715 0.14497 0.256476
373 1 0.441535 0.182687 0.37663
376 1 0.471034 0.143229 0.493488
377 1 0.500438 0.178635 0.357537
380 1 0.53148 0.143964 0.496733
381 1 0.561945 0.175965 0.369039
189 1 0.593538 0.143381 0.255304
385 1 0.624478 0.175622 0.379774
389 1 0.686351 0.176229 0.375814
197 1 0.714795 0.142979 0.259018
392 1 0.71735 0.14244 0.496503
393 1 0.745583 0.179104 0.380073
397 1 0.804515 0.178912 0.381059
400 1 0.837939 0.142653 0.497219
401 1 0.867143 0.178511 0.376469
404 1 0.900548 0.146782 0.484989
405 1 0.930391 0.178033 0.36545
213 1 0.960919 0.139478 0.250277
408 1 0.96037 0.141994 0.491962
409 1 0.990026 0.178239 0.380892
414 1 0.0413956 0.210935 0.265135
416 1 0.0724691 0.248103 0.379198
418 1 0.0996494 0.209228 0.25099
355 1 0.103031 0.212224 0.496173
359 1 0.162239 0.214265 0.488982
363 1 0.223895 0.213731 0.492056
430 1 0.288239 0.218414 0.269577
434 1 0.350206 0.212204 0.261727
436 1 0.379289 0.248726 0.383945
438 1 0.409381 0.216019 0.258481
379 1 0.470983 0.219023 0.490636
383 1 0.533169 0.214245 0.497762
448 1 0.564735 0.248193 0.372771
450 1 0.593761 0.210883 0.25196
452 1 0.625326 0.246725 0.366354
456 1 0.686041 0.248735 0.374292
391 1 0.656713 0.211932 0.497061
458 1 0.716152 0.212886 0.25445
462 1 0.777184 0.213994 0.259715
466 1 0.835246 0.212309 0.252636
403 1 0.836126 0.213115 0.497722
468 1 0.867688 0.247489 0.367764
407 1 0.899486 0.217284 0.494757
413 1 0.0126978 0.254534 0.405386
417 1 0.0446652 0.28503 0.265592
616 1 0.101193 0.285654 0.492844
420 1 0.132141 0.251124 0.375081
620 1 0.163809 0.28688 0.49128
424 1 0.192684 0.251154 0.360988
429 1 0.224686 0.286709 0.25468
428 1 0.255713 0.256033 0.363258
628 1 0.286267 0.290578 0.495612
432 1 0.318638 0.251409 0.387373
437 1 0.351233 0.284843 0.260824
632 1 0.349562 0.293376 0.499727
440 1 0.439518 0.251911 0.377801
445 1 0.472508 0.286282 0.259772
444 1 0.504218 0.250251 0.368776
449 1 0.532329 0.283676 0.253301
648 1 0.594617 0.28201 0.49972
656 1 0.71583 0.287379 0.496284
460 1 0.745577 0.253173 0.379501
464 1 0.806469 0.250243 0.378108
469 1 0.838158 0.286391 0.25052
664 1 0.838172 0.286458 0.492396
668 1 0.898643 0.287971 0.499046
472 1 0.929044 0.251228 0.364753
672 1 0.960664 0.282786 0.475939
476 1 0.994118 0.250258 0.36067
610 1 0.00620708 0.329721 0.372111
678 1 0.0411237 0.356829 0.261153
613 1 0.073075 0.32211 0.385084
615 1 0.0424785 0.356014 0.495424
619 1 0.102173 0.355664 0.490736
617 1 0.134341 0.319191 0.358223
621 1 0.192849 0.32109 0.377447
690 1 0.222936 0.357288 0.2653
625 1 0.255179 0.325689 0.374658
694 1 0.288497 0.360534 0.258114
629 1 0.319477 0.324781 0.369245
633 1 0.379648 0.323811 0.369875
635 1 0.350445 0.361767 0.487459
639 1 0.407553 0.359543 0.492037
637 1 0.438036 0.321483 0.384708
706 1 0.47206 0.3548 0.255939
643 1 0.470294 0.353886 0.49971
641 1 0.503505 0.318386 0.377815
647 1 0.533664 0.354565 0.49534
645 1 0.564358 0.321373 0.370777
714 1 0.593695 0.354666 0.256568
649 1 0.625078 0.31952 0.382074
653 1 0.684986 0.319951 0.371484
718 1 0.654522 0.356394 0.265623
657 1 0.746193 0.322936 0.366747
726 1 0.777023 0.355828 0.250966
663 1 0.777787 0.359019 0.496984
661 1 0.807709 0.322069 0.37671
730 1 0.838878 0.360583 0.258074
665 1 0.868245 0.324168 0.375901
734 1 0.897719 0.358414 0.250516
669 1 0.929793 0.321912 0.371839
738 1 0.960269 0.360448 0.257078
673 1 0.991007 0.323088 0.384991
677 1 0.0121539 0.397586 0.380247
680 1 0.0723115 0.394123 0.372178
880 1 0.102867 0.426827 0.490575
684 1 0.13502 0.38947 0.375799
688 1 0.192419 0.391717 0.397471
693 1 0.223314 0.425928 0.260587
692 1 0.256238 0.396289 0.400658
697 1 0.287769 0.429699 0.273036
696 1 0.319493 0.394152 0.379207
701 1 0.349191 0.429722 0.253294
700 1 0.378755 0.398622 0.366176
705 1 0.407391 0.430468 0.253526
900 1 0.411462 0.428783 0.499564
704 1 0.438306 0.391828 0.370618
709 1 0.468814 0.425301 0.25067
904 1 0.469804 0.424154 0.495036
708 1 0.503285 0.388599 0.380086
908 1 0.53024 0.428267 0.499975
712 1 0.56256 0.391846 0.37789
912 1 0.592636 0.428933 0.486199
716 1 0.624251 0.393131 0.375521
721 1 0.652929 0.427323 0.25182
720 1 0.685364 0.393632 0.381381
916 1 0.65622 0.427774 0.492387
725 1 0.715749 0.428003 0.251726
724 1 0.746041 0.392268 0.385153
728 1 0.806472 0.394043 0.373761
924 1 0.776157 0.429811 0.494187
733 1 0.837286 0.433776 0.252873
928 1 0.839923 0.42828 0.493302
732 1 0.869184 0.394908 0.384833
737 1 0.901084 0.430306 0.251326
736 1 0.930345 0.390602 0.389579
936 1 0.961182 0.427575 0.48668
740 1 0.99528 0.399007 0.362174
874 1 0.00658782 0.468533 0.380162
877 1 0.0719983 0.461201 0.379179
879 1 0.0415363 0.49878 0.491588
883 1 0.10267 0.495721 0.487652
881 1 0.132681 0.462334 0.375915
887 1 0.162568 0.496796 0.48762
885 1 0.194113 0.460338 0.373428
954 1 0.223746 0.496617 0.250342
889 1 0.255412 0.46585 0.384806
893 1 0.318608 0.465921 0.384988
897 1 0.37885 0.467928 0.383602
901 1 0.438731 0.462914 0.362302
905 1 0.499996 0.462214 0.372984
911 1 0.529994 0.499088 0.487341
909 1 0.563687 0.466315 0.364494
913 1 0.623002 0.465266 0.369921
917 1 0.687041 0.465569 0.373995
982 1 0.654424 0.498361 0.257937
986 1 0.716616 0.497126 0.251386
921 1 0.745031 0.463433 0.381514
925 1 0.805923 0.462134 0.375401
994 1 0.838114 0.499729 0.262141
929 1 0.870561 0.46188 0.386149
998 1 0.902559 0.499258 0.253114
933 1 0.930738 0.461676 0.379094
939 1 0.961287 0.495919 0.487944
937 1 0.999063 0.469823 0.35502
941 1 0.0126592 0.536507 0.391318
944 1 0.0752459 0.536143 0.373578
948 1 0.134266 0.532157 0.367852
952 1 0.194511 0.531681 0.367979
956 1 0.254208 0.535875 0.382184
895 1 0.286894 0.50069 0.496034
960 1 0.31712 0.535435 0.367721
964 1 0.379455 0.539622 0.388575
966 1 0.406845 0.50089 0.256686
968 1 0.439491 0.533958 0.36095
972 1 0.499615 0.536062 0.36723
907 1 0.468973 0.500297 0.488983
976 1 0.562064 0.53591 0.361058
915 1 0.59388 0.504508 0.485068
980 1 0.624737 0.538384 0.371764
984 1 0.688063 0.532399 0.378001
919 1 0.655337 0.503441 0.499813
988 1 0.748609 0.536258 0.377809
990 1 0.776416 0.50025 0.251751
992 1 0.804374 0.536083 0.387832
996 1 0.870149 0.533841 0.375813
1000 1 0.930541 0.535713 0.383587
1004 1 0.990268 0.537749 0.387253
1138 1 0.0101917 0.610552 0.391344
1141 1 0.0722486 0.611369 0.374179
1140 1 0.0446799 0.569503 0.492885
949 1 0.103083 0.570244 0.250192
1145 1 0.132955 0.604072 0.375239
953 1 0.165354 0.568102 0.251781
1149 1 0.193655 0.603665 0.39046
1153 1 0.255504 0.605837 0.372986
1156 1 0.286142 0.569312 0.493359
1157 1 0.317348 0.605017 0.364099
965 1 0.348617 0.569826 0.250625
1161 1 0.378105 0.606863 0.372358
1160 1 0.347554 0.57045 0.495192
1165 1 0.441326 0.609858 0.369996
1168 1 0.47101 0.573641 0.494141
977 1 0.532363 0.570515 0.251553
1169 1 0.502499 0.605223 0.375502
1173 1 0.562603 0.603641 0.367579
1176 1 0.593531 0.574561 0.483793
1177 1 0.626341 0.607036 0.36987
985 1 0.6562 0.569096 0.264146
1181 1 0.688599 0.607614 0.380123
1185 1 0.747632 0.610199 0.372155
1188 1 0.775349 0.572829 0.499082
1189 1 0.808229 0.605715 0.369738
1192 1 0.8381 0.567318 0.489306
1193 1 0.870299 0.605596 0.367563
1196 1 0.901253 0.569518 0.499309
1197 1 0.931547 0.609487 0.385753
1005 1 0.960101 0.574949 0.267544
1201 1 0.999194 0.609056 0.356613
1205 1 0.00328727 0.683949 0.371185
1206 1 0.0390108 0.648146 0.274421
1208 1 0.0709509 0.678947 0.388434
1147 1 0.104382 0.641957 0.490652
1212 1 0.133675 0.678091 0.371938
1214 1 0.16354 0.642098 0.263942
1216 1 0.195044 0.676853 0.38354
1218 1 0.225909 0.638826 0.264248
1220 1 0.255435 0.675067 0.369543
1159 1 0.285738 0.641292 0.480501
1224 1 0.318531 0.673116 0.376988
1228 1 0.378278 0.678736 0.375257
1163 1 0.347858 0.639437 0.490618
1232 1 0.439974 0.678791 0.368901
1171 1 0.474355 0.64475 0.498125
1236 1 0.501294 0.679138 0.367645
1175 1 0.531746 0.640099 0.496087
1240 1 0.562475 0.672209 0.37
1242 1 0.595398 0.637137 0.270856
1244 1 0.627223 0.678196 0.382343
1248 1 0.686859 0.678936 0.377699
1250 1 0.718697 0.645203 0.257123
1252 1 0.748553 0.682071 0.38572
1191 1 0.779042 0.64681 0.497531
1256 1 0.811349 0.681114 0.37809
1195 1 0.839575 0.643496 0.490199
1260 1 0.869327 0.680413 0.362506
1199 1 0.902417 0.64439 0.491089
1264 1 0.932582 0.685238 0.373349
1266 1 0.963127 0.643276 0.251856
1268 1 0.99693 0.681759 0.333002
1209 1 0.0391022 0.718344 0.265537
1213 1 0.101519 0.716292 0.266268
1409 1 0.134058 0.74616 0.389927
1217 1 0.163477 0.713563 0.25713
1413 1 0.195518 0.748093 0.366422
1221 1 0.225708 0.713725 0.250993
1416 1 0.226454 0.712572 0.498457
1417 1 0.256437 0.746805 0.371904
1225 1 0.286477 0.70915 0.250752
1420 1 0.286836 0.712176 0.496704
1421 1 0.317527 0.743582 0.376782
1425 1 0.37709 0.74929 0.37248
1428 1 0.408981 0.713525 0.491008
1432 1 0.473455 0.716582 0.490065
1436 1 0.534293 0.715085 0.493063
1437 1 0.562166 0.747912 0.375894
1440 1 0.594411 0.715481 0.497941
1441 1 0.624621 0.747775 0.372663
1249 1 0.655503 0.71002 0.254123
1445 1 0.685005 0.747427 0.375881
1257 1 0.78211 0.715725 0.258994
1261 1 0.840355 0.712014 0.253668
1456 1 0.839572 0.717291 0.499062
1460 1 0.902611 0.716548 0.498939
1464 1 0.962872 0.718325 0.493128
1402 1 0.0114745 0.755643 0.39637
1405 1 0.0708083 0.751116 0.386257
1407 1 0.0426629 0.789268 0.496568
1474 1 0.10271 0.785162 0.25678
1478 1 0.165032 0.784546 0.254475
1419 1 0.225289 0.786473 0.492554
1486 1 0.287279 0.779391 0.251631
1427 1 0.345804 0.783391 0.49389
1429 1 0.438724 0.751086 0.375913
1435 1 0.473135 0.788736 0.486666
1433 1 0.504295 0.751382 0.362725
1439 1 0.532625 0.785309 0.495107
1506 1 0.592901 0.782661 0.250889
1443 1 0.593773 0.787083 0.498962
1447 1 0.6557 0.786439 0.490418
1451 1 0.717206 0.786663 0.496331
1449 1 0.748996 0.753053 0.379153
1455 1 0.780465 0.790692 0.494259
1453 1 0.81144 0.753773 0.378946
1457 1 0.870154 0.751103 0.380131
1526 1 0.900338 0.78854 0.254785
1461 1 0.930303 0.755219 0.378411
1467 1 0.961317 0.794423 0.498706
1465 1 0.992822 0.756282 0.367295
1469 1 0.0122733 0.827512 0.39551
1472 1 0.0709132 0.820535 0.371922
1668 1 0.0445494 0.860179 0.491853
1477 1 0.103852 0.856884 0.258376
1476 1 0.133876 0.820844 0.374593
1481 1 0.164725 0.858559 0.252545
1676 1 0.16493 0.854847 0.493333
1480 1 0.194777 0.819854 0.37724
1485 1 0.225592 0.856689 0.252458
1680 1 0.225983 0.856947 0.4988
1484 1 0.257185 0.819599 0.372456
1489 1 0.287607 0.857679 0.252481
1684 1 0.284556 0.855712 0.498598
1488 1 0.313661 0.817876 0.376386
1493 1 0.346018 0.856848 0.252992
1688 1 0.345846 0.852529 0.495405
1492 1 0.378003 0.819559 0.377792
1692 1 0.4092 0.855397 0.497085
1496 1 0.440221 0.820608 0.3733
1500 1 0.504384 0.822946 0.366927
1700 1 0.532805 0.85724 0.492034
1504 1 0.563432 0.81931 0.374827
1509 1 0.592404 0.856938 0.255397
1508 1 0.622992 0.820411 0.380794
1512 1 0.687538 0.820653 0.363537
1513 1 0.65588 0.853827 0.250354
1517 1 0.716228 0.856939 0.255025
1516 1 0.748272 0.823988 0.386002
1520 1 0.809956 0.823656 0.370975
1720 1 0.840562 0.859342 0.49129
1524 1 0.868925 0.823985 0.36347
1528 1 0.928391 0.826655 0.387224
1532 1 0.995675 0.825086 0.366352
1533 1 0.96275 0.85748 0.251435
1666 3 0.0101699 0.892778 0.375
1734 3 0.0408683 0.928485 0.25
1669 3 0.0715666 0.892778 0.375
1738 3 0.102265 0.928485 0.25
1673 3 0.132963 0.892778 0.375
1742 3 0.163662 0.928485 0.25
1677 3 0.19436 0.892778 0.375
1746 3 0.225058 0.928485 0.25
1681 3 0.255757 0.892778 0.375
1750 3 0.286455 0.928485 0.25
1685 3 0.317153 0.892778 0.375
1754 3 0.347852 0.928485 0.25
1689 3 0.37855 0.892778 0.375
1758 3 0.409249 0.928485 0.25
1693 3 0.439947 0.892778 0.375
1762 3 0.470645 0.928485 0.25
1697 3 0.501344 0.892778 0.375
1766 3 0.532042 0.928485 0.25
1701 3 0.56274 0.892778 0.375
1770 3 0.593439 0.928485 0.25
1705 3 0.624137 0.892778 0.375
1709 3 0.685534 0.892778 0.375
1774 3 0.654835 0.928485 0.25
1778 3 0.716232 0.928485 0.25