ITEM: TIMESTEP
0
ITEM: NUMBER OF ATOMS
800
ITEM: BOX BOUNDS pp pp pp
0.0000000000000000e+00 3.0783806435974007e+01
0.0000000000000000e+00 3.0783806435974007e+01
-1.5391903217987005e-01 1.5391903217987005e-01
ITEM: ATOMS id type xs ys zs
1 1 0 0 0.5
2 1 0.025 0.025 0.5
3 1 0.05 0 0.5
4 1 0.075 0.025 0.5
5 1 0.1 0 0.5
6 1 0.125 0.025 0.5
7 1 0.15 0 0.5
8 1 0.175 0.025 0.5
9 1 0.2 0 0.5
10 1 0.225 0.025 0.5
11 1 0.25 0 0.5
12 1 0.275 0.025 0.5
13 1 0.3 0 0.5
14 1 0.325 0.025 0.5
15 1 0.35 0 0.5
16 1 0.375 0.025 0.5
17 1 0.4 0 0.5
18 1 0.425 0.025 0.5
19 1 0.45 0 0.5
20 1 0.475 0.025 0.5
21 1 0.5 0 0.5
22 1 0.525 0.025 0.5
23 1 0.55 0 0.5
24 1 0.575 0.025 0.5
25 1 0.6 0 0.5
26 1 0.625 0.025 0.5
27 1 0.65 0 0.5
28 1 0.675 0.025 0.5
29 1 0.7 0 0.5
30 1 0.725 0.025 0.5
31 1 0.75 0 0.5
32 1 0.775 0.025 0.5
33 1 0.8 0 0.5
34 1 0.825 0.025 0.5
35 1 0.85 0 0.5
36 1 0.875 0.025 0.5
37 1 0.9 0 0.5
38 1 0.925 0.025 0.5
39 1 0.95 0 0.5
40 1 0.975 0.025 0.5
41 1 0 0.05 0.5
42 1 0.025 0.075 0.5
43 1 0.05 0.05 0.5
44 1 0.075 0.075 0.5
45 1 0.1 0.05 0.5
46 1 0.125 0.075 0.5
47 1 0.15 0.05 0.5
48 1 0.175 0.075 0.5
49 1 0.2 0.05 0.5
50 1 0.225 0.075 0.5
51 1 0.25 0.05 0.5
52 1 0.275 0.075 0.5
53 1 0.3 0.05 0.5
54 1 0.325 0.075 0.5
55 1 0.35 0.05 0.5
56 1 0.375 0.075 0.5
57 1 0.4 0.05 0.5
58 1 0.425 0.075 0.5
59 1 0.45 0.05 0.5
60 1 0.475 0.075 0.5
61 1 0.5 0.05 0.5
62 1 0.525 0.075 0.5
63 1 0.55 0.05 0.5
64 1 0.575 0.075 0.5
65 1 0.6 0.05 0.5
66 1 0.625 0.075 0.5
67 1 0.65 0.05 0.5
68 1 0.675 0.075 0.5
69 1 0.7 0.05 0.5
70 1 0.725 0.075 0.5
71 1 0.75 0.05 0.5
72 1 0.775 0.075 0.5
73 1 0.8 0.05 0.5
74 1 0.825 0.075 0.5
75 1 0.85 0.05 0.5
76 1 0.875 0.075 0.5
77 1 0.9 0.05 0.5
78 1 0.925 0.075 0.5
79 1 0.95 0.05 0.5
80 1 0.975 0.075 0.5
81 1 0 0.1 0.5
82 1 0.025 0.125 0.5
83 1 0.05 0.1 0.5
84 1 0.075 0.125 0.5
85 1 0.1 0.1 0.5
86 1 0.125 0.125 0.5
87 1 0.15 0.1 0.5
88 1 0.175 0.125 0.5
89 1 0.2 0.1 0.5
90 1 0.225 0.125 0.5
91 1 0.25 0.1 0.5
92 1 0.275 0.125 0.5
93 1 0.3 0.1 0.5
94 1 0.325 0.125 0.5
95 1 0.35 0.1 0.5
96 1 0.375 0.125 0.5
97 1 0.4 0.1 0.5
98 1 0.425 0.125 0.5
99 1 0.45 0.1 0.5
100 1 0.475 0.125 0.5
101 1 0.5 0.1 0.5
102 1 0.525 0.125 0.5
103 1 0.55 0.1 0.5
104 1 0.575 0.125 0.5
105 1 0.6 0.1 0.5
106 1 0.625 0.125 0.5
107 1 0.65 0.1 0.5
108 1 0.675 0.125 0.5
109 1 0.7 0.1 0.5
110 1 0.725 0.125 0.5
111 1 0.75 0.1 0.5
112 1 0.775 0.125 0.5
113 1 0.8 0.1 0.5
114 1 0.825 0.125 0.5
115 1 0.85 0.1 0.5
116 1 0.875 0.125 0.5
117 1 0.9 0.1 0.5
118 1 0.925 0.125 0.5
119 1 0.95 0.1 0.5
120 1 0.975 0.125 0.5
121 1 0 0.15 0.5
122 1 0.025 0.175 0.5
123 1 0.05 0.15 0.5
124 1 0.075 0.175 0.5
125 1 0.1 0.15 0.5
126 1 0.125 0.175 0.5
127 1 0.15 0.15 0.5
128 1 0.175 0.175 0.5
129 1 0.2 0.15 0.5
130 1 0.225 0.175 0.5
131 1 0.25 0.15 0.5
132 1 0.275 0.175 0.5
133 1 0.3 0.15 0.5
134 1 0.325 0.175 0.5
135 1 0.35 0.15 0.5
136 1 0.375 0.175 0.5
137 1 0.4 0.15 0.5
138 1 0.425 0.175 0.5
139 1 0.45 0.15 0.5
140 1 0.475 0.175 0.5
141 1 0.5 0.15 0.5
142 1 0.525 0.175 0.5
143 1 0.55 0.15 0.5
144 1 0.575 0.175 0.5
145 1 0.6 0.15 0.5
146 1 0.625 0.175 0.5
147 1 0.65 0.15 0.5
148 1 0.675 0.175 0.5
149 1 0.7 0.15 0.5
150 1 0.725 0.175 0.5
151 1 0.75 0.15 0.5
152 1 0.775 0.175 0.5
153 1 0.8 0.15 0.5
154 1 0.825 0.175 0.5
155 1 0.85 0.15 0.5
156 1 0.875 0.175 0.5
157 1 0.9 0.15 0.5
158 1 0.925 0.175 0.5
159 1 0.95 0.15 0.5
160 1 0.975 0.175 0.5
161 1 0 0.2 0.5
162 1 0.025 0.225 0.5
163 1 0.05 0.2 0.5
164 1 0.075 0.225 0.5
165 1 0.1 0.2 0.5
166 1 0.125 0.225 0.5
167 1 0.15 0.2 0.5
168 1 0.175 0.225 0.5
169 1 0.2 0.2 0.5
170 1 0.225 0.225 0.5
171 1 0.25 0.2 0.5
172 1 0.275 0.225 0.5
173 1 0.3 0.2 0.5
174 1 0.325 0.225 0.5
175 1 0.35 0.2 0.5
176 1 0.375 0.225 0.5
177 1 0.4 0.2 0.5
178 1 0.425 0.225 0.5
179 1 0.45 0.2 0.5
180 1 0.475 0.225 0.5
181 1 0.5 0.2 0.5
182 1 0.525 0.225 0.5
183 1 0.55 0.2 0.5
184 1 0.575 0.225 0.5
185 1 0.6 0.2 0.5
186 1 0.625 0.225 0.5
187 1 0.65 0.2 0.5
188 1 0.675 0.225 0.5
189 1 0.7 0.2 0.5
190 1 0.725 0.225 0.5
191 1 0.75 0.2 0.5
192 1 0.775 0.225 0.5
193 1 0.8 0.2 0.5
194 1 0.825 0.225 0.5
195 1 0.85 0.2 0.5
196 1 0.875 0.225 0.5
197 1 0.9 0.2 0.5
198 1 0.925 0.225 0.5
199 1 0.95 0.2 0.5
200 1 0.975 0.225 0.5
201 1 0 0.25 0.5
202 1 0.025 0.275 0.5
203 1 0.05 0.25 0.5
204 1 0.075 0.275 0.5
205 1 0.1 0.25 0.5
206 1 0.125 0.275 0.5
207 1 0.15 0.25 0.5
208 1 0.175 0.275 0.5
209 1 0.2 0.25 0.5
210 1 0.225 0.275 0.5
211 1 0.25 0.25 0.5
212 1 0.275 0.275 0.5
213 1 0.3 0.25 0.5
214 1 0.325 0.275 0.5
215 1 0.35 0.25 0.5
216 1 0.375 0.275 0.5
217 1 0.4 0.25 0.5
218 1 0.425 0.275 0.5
219 1 0.45 0.25 0.5
220 1 0.475 0.275 0.5
221 1 0.5 0.25 0.5
222 1 0.525 0.275 0.5
223 1 0.55 0.25 0.5
224 1 0.575 0.275 0.5
225 1 0.6 0.25 0.5
226 1 0.625 0.275 0.5
227 1 0.65 0.25 0.5
228 1 0.675 0.275 0.5
229 1 0.7 0.25 0.5
230 1 0.725 0.275 0.5
231 1 0.75 0.25 0.5
232 1 0.775 0.275 0.5
233 1 0.8 0.25 0.5
234 1 0.825 0.275 0.5
235 1 0.85 0.25 0.5
236 1 0.875 0.275 0.5
237 1 0.9 0.25 0.5
238 1 0.925 0.275 0.5
239 1 0.95 0.25 0.5
240 1 0.975 0.275 0.5
241 1 0 0.3 0.5
242 1 0.025 0.325 0.5
243 1 0.05 0.3 0.5
244 1 0.075 0.325 0.5
245 1 0.1 0.3 0.5
246 1 0.125 0.325 0.5
247 1 0.15 0.3 0.5
248 1 0.175 0.325 0.5
249 1 0.2 0.3 0.5
250 1 0.225 0.325 0.5
251 1 0.25 0.3 0.5
252 1 0.275 0.325 0.5
253 1 0.3 0.3 0.5
254 1 0.325 0.325 0.5
255 1 0.35 0.3 0.5
256 1 0.375 0.325 0.5
257 1 0.4 0.3 0.5
258 1 0.425 0.325 0.5
259 1 0.45 0.3 0.5
260 1 0.475 0.325 0.5
261 1 0.5 0.3 0.5
262 1 0.525 0.325 0.5
263 1 0.55 0.3 0.5
264 1 0.575 0.325 0.5
265 1 0.6 0.3 0.5
266 1 0.625 0.325 0.5
267 1 0.65 0.3 0.5
268 1 0.675 0.325 0.5
269 1 0.7 0.3 0.5
270 1 0.725 0.325 0.5
271 1 0.75 0.3 0.5
272 1 0.775 0.325 0.5
273 1 0.8 0.3 0.5
274 1 0.825 0.325 0.5
275 1 0.85 0.3 0.5
276 1 0.875 0.325 0.5
277 1 0.9 0.3 0.5
278 1 0.925 0.325 0.5
279 1 0.95 0.3 0.5
280 1 0.975 0.325 0.5
281 1 0 0.35 0.5
282 1 0.025 0.375 0.5
283 1 0.05 0.35 0.5
284 1 0.075 0.375 0.5
285 1 0.1 0.35 0.5
286 1 0.125 0.375 0.5
287 1 0.15 0.35 0.5
288 1 0.175 0.375 0.5
289 1 0.2 0.35 0.5
290 1 0.225 0.375 0.5
291 1 0.25 0.35 0.5
292 1 0.275 0.375 0.5
293 1 0.3 0.35 0.5
294 1 0.325 0.375 0.5
295 1 0.35 0.35 0.5
296 1 0.375 0.375 0.5
297 1 0.4 0.35 0.5
298 1 0.425 0.375 0.5
299 1 0.45 0.35 0.5
300 1 0.475 0.375 0.5
301 1 0.5 0.35 0.5
302 1 0.525 0.375 0.5
303 1 0.55 0.35 0.5
304 1 0.575 0.375 0.5
305 1 0.6 0.35 0.5
306 1 0.625 0.375 0.5
307 1 0.65 0.35 0.5
308 1 0.675 0.375 0.5
309 1 0.7 0.35 0.5
310 1 0.725 0.375 0.5
311 1 0.75 0.35 0.5
312 1 0.775 0.375 0.5
313 1 0.8 0.35 0.5
314 1 0.825 0.375 0.5
315 1 0.85 0.35 0.5
316 1 0.875 0.375 0.5
317 1 0.9 0.35 0.5
318 1 0.925 0.375 0.5
319 1 0.95 0.35 0.5
320 1 0.975 0.375 0.5
321 1 0 0.4 0.5
322 1 0.025 0.425 0.5
323 1 0.05 0.4 0.5
324 1 0.075 0.425 0.5
325 1 0.1 0.4 0.5
326 1 0.125 0.425 0.5
327 1 0.15 0.4 0.5
328 1 0.175 0.425 0.5
329 1 0.2 0.4 0.5
330 1 0.225 0.425 0.5
331 1 0.25 0.4 0.5
332 1 0.275 0.425 0.5
333 1 0.3 0.4 0.5
334 1 0.325 0.425 0.5
335 1 0.35 0.4 0.5
336 1 0.375 0.425 0.5
337 1 0.4 0.4 0.5
338 1 0.425 0.425 0.5
339 1 0.45 0.4 0.5
340 1 0.475 0.425 0.5
341 1 0.5 0.4 0.5
342 1 0.525 0.425 0.5
343 1 0.55 0.4 0.5
344 1 0.575 0.425 0.5
345 1 0.6 0.4 0.5
346 1 0.625 0.425 0.5
347 1 0.65 0.4 0.5
348 1 0.675 0.425 0.5
349 1 0.7 0.4 0.5
350 1 0.725 0.425 0.5
351 1 0.75 0.4 0.5
352 1 0.775 0.425 0.5
353 1 0.8 0.4 0.5
354 1 0.825 0.425 0.5
355 1 0.85 0.4 0.5
356 1 0.875 0.425 0.5
357 1 0.9 0.4 0.5
358 1 0.925 0.425 0.5
359 1 0.95 0.4 0.5
360 1 0.975 0.425 0.5
361 1 0 0.45 0.5
362 1 0.025 0.475 0.5
363 1 0.05 0.45 0.5
364 1 0.075 0.475 0.5
365 1 0.1 0.45 0.5
366 1 0.125 0.475 0.5
367 1 0.15 0.45 0.5
368 1 0.175 0.475 0.5
369 1 0.2 0.45 0.5
370 1 0.225 0.475 0.5
371 1 0.25 0.45 0.5
372 1 0.275 0.475 0.5
373 1 0.3 0.45 0.5
374 1 0.325 0.475 0.5
375 1 0.35 0.45 0.5
376 1 0.375 0.475 0.5
377 1 0.4 0.45 0.5
378 1 0.425 0.475 0.5
379 1 0.45 0.45 0.5
380 1 0.475 0.475 0.5
381 1 0.5 0.45 0.5
382 1 0.525 0.475 0.5
383 1 0.55 0.45 0.5
384 1 0.575 0.475 0.5
385 1 0.6 0.45 0.5
386 1 0.625 0.475 0.5
387 1 0.65 0.45 0.5
388 1 0.675 0.475 0.5
389 1 0.7 0.45 0.5
390 1 0.725 0.475 0.5
391 1 0.75 0.45 0.5
392 1 0.775 0.475 0.5
393 1 0.8 0.45 0.5
394 1 0.825 0.475 0.5
395 1 0.85 0.45 0.5
396 1 0.875 0.475 0.5
397 1 0.9 0.45 0.5
398 1 0.925 0.475 0.5
399 1 0.95 0.45 0.5
400 1 0.975 0.475 0.5
401 1 0 0.5 0.5
403 1 0.05 0.5 0.5
405 1 0.1 0.5 0.5
407 1 0.15 0.5 0.5
409 1 0.2 0.5 0.5
411 1 0.25 0.5 0.5
413 1 0.3 0.5 0.5
415 1 0.35 0.5 0.5
417 1 0.4 0.5 0.5
419 1 0.45 0.5 0.5
421 1 0.5 0.5 0.5
423 1 0.55 0.5 0.5
425 1 0.6 0.5 0.5
427 1 0.65 0.5 0.5
429 1 0.7 0.5 0.5
431 1 0.75 0.5 0.5
433 1 0.8 0.5 0.5
435 1 0.85 0.5 0.5
437 1 0.9 0.5 0.5
439 1 0.95 0.5 0.5
402 1 0.025 0.525 0.5
441 1 0 0.55 0.5
404 1 0.075 0.525 0.5
443 1 0.05 0.55 0.5
406 1 0.125 0.525 0.5
445 1 0.1 0.55 0.5
408 1 0.175 0.525 0.5
447 1 0.15 0.55 0.5
410 1 0.225 0.525 0.5
449 1 0.2 0.55 0.5
412 1 0.275 0.525 0.5
451 1 0.25 0.55 0.5
414 1 0.325 0.525 0.5
453 1 0.3 0.55 0.5
416 1 0.375 0.525 0.5
455 1 0.35 0.55 0.5
418 1 0.425 0.525 0.5
457 1 0.4 0.55 0.5
420 1 0.475 0.525 0.5
459 1 0.45 0.55 0.5
461 1 0.5 0.55 0.5
422 1 0.525 0.525 0.5
463 1 0.55 0.55 0.5
424 1 0.575 0.525 0.5
465 1 0.6 0.55 0.5
426 1 0.625 0.525 0.5
467 1 0.65 0.55 0.5
428 1 0.675 0.525 0.5
469 1 0.7 0.55 0.5
430 1 0.725 0.525 0.5
471 1 0.75 0.55 0.5
432 1 0.775 0.525 0.5
473 1 0.8 0.55 0.5
434 1 0.825 0.525 0.5
475 1 0.85 0.55 0.5
436 1 0.875 0.525 0.5
477 1 0.9 0.55 0.5
438 1 0.925 0.525 0.5
479 1 0.95 0.55 0.5
440 1 0.975 0.525 0.5
442 1 0.025 0.575 0.5
481 1 0 0.6 0.5
444 1 0.075 0.575 0.5
483 1 0.05 0.6 0.5
446 1 0.125 0.575 0.5
485 1 0.1 0.6 0.5
448 1 0.175 0.575 0.5
487 1 0.15 0.6 0.5
450 1 0.225 0.575 0.5
489 1 0.2 0.6 0.5
452 1 0.275 0.575 0.5
491 1 0.25 0.6 0.5
454 1 0.325 0.575 0.5
493 1 0.3 0.6 0.5
456 1 0.375 0.575 0.5
495 1 0.35 0.6 0.5
458 1 0.425 0.575 0.5
497 1 0.4 0.6 0.5
460 1 0.475 0.575 0.5
499 1 0.45 0.6 0.5
501 1 0.5 0.6 0.5
462 1 0.525 0.575 0.5
503 1 0.55 0.6 0.5
464 1 0.575 0.575 0.5
505 1 0.6 0.6 0.5
466 1 0.625 0.575 0.5
507 1 0.65 0.6 0.5
468 1 0.675 0.575 0.5
509 1 0.7 0.6 0.5
470 1 0.725 0.575 0.5
511 1 0.75 0.6 0.5
472 1 0.775 0.575 0.5
513 1 0.8 0.6 0.5
474 1 0.825 0.575 0.5
515 1 0.85 0.6 0.5
476 1 0.875 0.575 0.5
517 1 0.9 0.6 0.5
478 1 0.925 0.575 0.5
519 1 0.95 0.6 0.5
480 1 0.975 0.575 0.5
482 1 0.025 0.625 0.5
521 1 0 0.65 0.5
484 1 0.075 0.625 0.5
523 1 0.05 0.65 0.5
486 1 0.125 0.625 0.5
525 1 0.1 0.65 0.5
488 1 0.175 0.625 0.5
527 1 0.15 0.65 0.5
490 1 0.225 0.625 0.5
529 1 0.2 0.65 0.5
492 1 0.275 0.625 0.5
531 1 0.25 0.65 0.5
494 1 0.325 0.625 0.5
533 1 0.3 0.65 0.5
496 1 0.375 0.625 0.5
535 1 0.35 0.65 0.5
498 1 0.425 0.625 0.5
537 1 0.4 0.65 0.5
500 1 0.475 0.625 0.5
539 1 0.45 0.65 0.5
541 1 0.5 0.65 0.5
502 1 0.525 0.625 0.5
543 1 0.55 0.65 0.5
504 1 0.575 0.625 0.5
545 1 0.6 0.65 0.5
506 1 0.625 0.625 0.5
547 1 0.65 0.65 0.5
508 1 0.675 0.625 0.5
549 1 0.7 0.65 0.5
510 1 0.725 0.625 0.5
551 1 0.75 0.65 0.5
512 1 0.775 0.625 0.5
553 1 0.8 0.65 0.5
514 1 0.825 0.625 0.5
555 1 0.85 0.65 0.5
516 1 0.875 0.625 0.5
557 1 0.9 0.65 0.5
518 1 0.925 0.625 0.5
559 1 0.95 0.65 0.5
520 1 0.975 0.625 0.5
522 1 0.025 0.675 0.5
561 1 0 0.7 0.5
524 1 0.075 0.675 0.5
563 1 0.05 0.7 0.5
526 1 0.125 0.675 0.5
565 1 0.1 0.7 0.5
528 1 0.175 0.675 0.5
567 1 0.15 0.7 0.5
530 1 0.225 0.675 0.5
569 1 0.2 0.7 0.5
532 1 0.275 0.675 0.5
571 1 0.25 0.7 0.5
534 1 0.325 0.675 0.5
573 1 0.3 0.7 0.5
536 1 0.375 0.675 0.5
575 1 0.35 0.7 0.5
538 1 0.425 0.675 0.5
577 1 0.4 0.7 0.5
540 1 0.475 0.675 0.5
579 1 0.45 0.7 0.5
581 1 0.5 0.7 0.5
542 1 0.525 0.675 0.5
583 1 0.55 0.7 0.5
544 1 0.575 0.675 0.5
585 1 0.6 0.7 0.5
546 1 0.625 0.675 0.5
587 1 0.65 0.7 0.5
548 1 0.675 0.675 0.5
589 1 0.7 0.7 0.5
550 1 0.725 0.675 0.5
591 1 0.75 0.7 0.5
552 1 0.775 0.675 0.5
593 1 0.8 0.7 0.5
554 1 0.825 0.675 0.5
595 1 0.85 0.7 0.5
556 1 0.875 0.675 0.5
597 1 0.9 0.7 0.5
558 1 0.925 0.675 0.5
599 1 0.95 0.7 0.5
560 1 0.975 0.675 0.5
562 1 0.025 0.725 0.5
601 1 0 0.75 0.5
564 1 0.075 0.725 0.5
603 1 0.05 0.75 0.5
566 1 0.125 0.725 0.5
605 1 0.1 0.75 0.5
568 1 0.175 0.725 0.5
607 1 0.15 0.75 0.5
570 1 0.225 0.725 0.5
609 1 0.2 0.75 0.5
572 1 0.275 0.725 0.5
611 1 0.25 0.75 0.5
574 1 0.325 0.725 0.5
613 1 0.3 0.75 0.5
576 1 0.375 0.725 0.5
615 1 0.35 0.75 0.5
578 1 0.425 0.725 0.5
617 1 0.4 0.75 0.5
580 1 0.475 0.725 0.5
619 1 0.45 0.75 0.5
621 1 0.5 0.75 0.5
582 1 0.525 0.725 0.5
623 1 0.55 0.75 0.5
584 1 0.575 0.725 0.5
625 1 0.6 0.75 0.5
586 1 0.625 0.725 0.5
627 1 0.65 0.75 0.5
588 1 0.675 0.725 0.5
629 1 0.7 0.75 0.5
590 1 0.725 0.725 0.5
631 1 0.75 0.75 0.5
592 1 0.775 0.725 0.5
633 1 0.8 0.75 0.5
594 1 0.825 0.725 0.5
635 1 0.85 0.75 0.5
596 1 0.875 0.725 0.5
637 1 0.9 0.75 0.5
598 1 0.925 0.725 0.5
639 1 0.95 0.75 0.5
600 1 0.975 0.725 0.5
602 1 0.025 0.775 0.5
641 1 0 0.8 0.5
604 1 0.075 0.775 0.5
643 1 0.05 0.8 0.5
606 1 0.125 0.775 0.5
645 1 0.1 0.8 0.5
608 1 0.175 0.775 0.5
647 1 0.15 0.8 0.5
610 1 0.225 0.775 0.5
649 1 0.2 0.8 0.5
612 1 0.275 0.775 0.5
651 1 0.25 0.8 0.5
614 1 0.325 0.775 0.5
653 1 0.3 0.8 0.5
616 1 0.375 0.775 0.5
655 1 0.35 0.8 0.5
618 1 0.425 0.775 0.5
657 1 0.4 0.8 0.5
620 1 0.475 0.775 0.5
659 1 0.45 0.8 0.5
661 1 0.5 0.8 0.5
622 1 0.525 0.775 0.5
663 1 0.55 0.8 0.5
624 1 0.575 0.775 0.5
665 1 0.6 0.8 0.5
626 1 0.625 0.775 0.5
667 1 0.65 0.8 0.5
628 1 0.675 0.775 0.5
669 1 0.7 0.8 0.5
630 1 0.725 0.775 0.5
671 1 0.75 0.8 0.5
632 1 0.775 0.775 0.5
673 1 0.8 0.8 0.5
634 1 0.825 0.775 0.5
675 1 0.85 0.8 0.5
636 1 0.875 0.775 0.5
677 1 0.9 0.8 0.5
638 1 0.925 0.775 0.5
679 1 0.95 0.8 0.5
640 1 0.975 0.775 0.5
642 1 0.025 0.825 0.5
681 1 0 0.85 0.5
644 1 0.075 0.825 0.5
683 1 0.05 0.85 0.5
646 1 0.125 0.825 0.5
685 1 0.1 0.85 0.5
648 1 0.175 0.825 0.5
687 1 0.15 0.85 0.5
650 1 0.225 0.825 0.5
689 1 0.2 0.85 0.5
652 1 0.275 0.825 0.5
691 1 0.25 0.85 0.5
654 1 0.325 0.825 0.5
693 1 0.3 0.85 0.5
656 1 0.375 0.825 0.5
695 1 0.35 0.85 0.5
658 1 0.425 0.825 0.5
697 1 0.4 0.85 0.5
660 1 0.475 0.825 0.5
699 1 0.45 0.85 0.5
701 1 0.5 0.85 0.5
662 1 0.525 0.825 0.5
703 1 0.55 0.85 0.5
664 1 0.575 0.825 0.5
705 1 0.6 0.85 0.5
666 1 0.625 0.825 0.5
707 1 0.65 0.85 0.5
668 1 0.675 0.825 0.5
709 1 0.7 0.85 0.5
670 1 0.725 0.825 0.5
711 1 0.75 0.85 0.5
672 1 0.775 0.825 0.5
713 1 0.8 0.85 0.5
674 1 0.825 0.825 0.5
715 1 0.85 0.85 0.5
676 1 0.875 0.825 0.5
717 1 0.9 0.85 0.5
678 1 0.925 0.825 0.5
719 1 0.95 0.85 0.5
680 1 0.975 0.825 0.5
682 1 0.025 0.875 0.5
721 1 0 0.9 0.5
684 1 0.075 0.875 0.5
723 1 0.05 0.9 0.5
686 1 0.125 0.875 0.5
725 1 0.1 0.9 0.5
688 1 0.175 0.875 0.5
727 1 0.15 0.9 0.5
690 1 0.225 0.875 0.5
729 1 0.2 0.9 0.5
692 1 0.275 0.875 0.5
731 1 0.25 0.9 0.5
694 1 0.325 0.875 0.5
733 1 0.3 0.9 0.5
696 1 0.375 0.875 0.5
735 1 0.35 0.9 0.5
698 1 0.425 0.875 0.5
737 1 0.4 0.9 0.5
700 1 0.475 0.875 0.5
739 1 0.45 0.9 0.5
741 1 0.5 0.9 0.5
702 1 0.525 0.875 0.5
743 1 0.55 0.9 0.5
704 1 0.575 0.875 0.5
745 1 0.6 0.9 0.5
706 1 0.625 0.875 0.5
747 1 0.65 0.9 0.5
708 1 0.675 0.875 0.5
749 1 0.7 0.9 0.5
710 1 0.725 0.875 0.5
751 1 0.75 0.9 0.5
712 1 0.775 0.875 0.5
753 1 0.8 0.9 0.5
714 1 0.825 0.875 0.5
755 1 0.85 0.9 0.5
716 1 0.875 0.875 0.5
757 1 0.9 0.9 0.5
718 1 0.925 0.875 0.5
759 1 0.95 0.9 0.5
720 1 0.975 0.875 0.5
722 1 0.025 0.925 0.5
761 1 0 0.95 0.5
724 1 0.075 0.925 0.5
763 1 0.05 0.95 0.5
726 1 0.125 0.925 0.5
765 1 0.1 0.95 0.5
728 1 0.175 0.925 0.5
767 1 0.15 0.95 0.5
730 1 0.225 0.925 0.5
769 1 0.2 0.95 0.5
732 1 0.275 0.925 0.5
771 1 0.25 0.95 0.5
734 1 0.325 0.925 0.5
773 1 0.3 0.95 0.5
736 1 0.375 0.925 0.5
775 1 0.35 0.95 0.5
738 1 0.425 0.925 0.5
777 1 0.4 0.95 0.5
740 1 0.475 0.925 0.5
779 1 0.45 0.95 0.5
781 1 0.5 0.95 0.5
742 1 0.525 0.925 0.5
783 1 0.55 0.95 0.5
744 1 0.575 0.925 0.5
785 1 0.6 0.95 0.5
746 1 0.625 0.925 0.5
787 1 0.65 0.95 0.5
748 1 0.675 0.925 0.5
789 1 0.7 0.95 0.5
750 1 0.725 0.925 0.5
791 1 0.75 0.95 0.5
752 1 0.775 0.925 0.5
793 1 0.8 0.95 0.5
754 1 0.825 0.925 0.5
795 1 0.85 0.95 0.5
756 1 0.875 0.925 0.5
797 1 0.9 0.95 0.5
758 1 0.925 0.925 0.5
799 1 0.95 0.95 0.5
760 1 0.975 0.925 0.5
762 1 0.025 0.975 0.5
764 1 0.075 0.975 0.5
766 1 0.125 0.975 0.5
768 1 0.175 0.975 0.5
770 1 0.225 0.975 0.5
772 1 0.275 0.975 0.5
774 1 0.325 0.975 0.5
776 1 0.375 0.975 0.5
778 1 0.425 0.975 0.5
780 1 0.475 0.975 0.5
782 1 0.525 0.975 0.5
784 1 0.575 0.975 0.5
786 1 0.625 0.975 0.5
788 1 0.675 0.975 0.5
790 1 0.725 0.975 0.5
792 1 0.775 0.975 0.5
794 1 0.825 0.975 0.5
796 1 0.875 0.975 0.5
798 1 0.925 0.975 0.5
800 1 0.975 0.975 0.5
ITEM: TIMESTEP
500
ITEM: NUMBER OF ATOMS
800
ITEM: BOX BOUNDS pp pp pp
0.0000000000000000e+00 3.0783806435974007e+01
0.0000000000000000e+00 3.0783806435974007e+01
-1.5391903217987005e-01 1.5391903217987005e-01
ITEM: ATOMS id type xs ys zs
1 1 0.930173 0.0487519 0.5
2 1 0.00873564 0.0194717 0.5
3 1 0.0153532 0.0655284 0.5
4 1 0.0424827 0.0320154 0.5
5 1 0.060724 0.979565 0.5
6 1 0.0876622 0.0506442 0.5
7 1 0.135145 0.0325937 0.5
8 1 0.171225 0.0532246 0.5
9 1 0.105194 0.019422 0.5
10 1 0.19263 0.0244846 0.5
11 1 0.244369 0.000162205 0.5
12 1 0.249566 0.964059 0.5
13 1 0.31545 0.995061 0.5
14 1 0.304658 0.0234672 0.5
15 1 0.347822 0.0126431 0.5
16 1 0.336591 0.0444325 0.5
17 1 0.37234 0.0393605 0.5
18 1 0.396091 0.0905834 0.5
19 1 0.395937 0.0588626 0.5
20 1 0.454908 0.0249831 0.5
21 1 0.495964 0.980259 0.5
22 1 0.534906 0.00473558 0.5
23 1 0.539555 0.973091 0.5
24 1 0.566606 0.0276424 0.5
25 1 0.57075 0.995725 0.5
26 1 0.597327 0.0173636 0.5
27 1 0.65603 0.0200408 0.5
28 1 0.666536 0.990151 0.5
29 1 0.7383 0.977193 0.5
30 1 0.777709 0.0336821 0.5
31 1 0.755723 0.00644967 0.5
32 1 0.816929 0.0131348 0.5
33 1 0.837385 0.976897 0.5
34 1 0.842611 0.0735578 0.5
35 1 0.885492 0.00553925 0.5
36 1 0.852849 0.113396 0.5
37 1 0.92608 0.94415 0.5
38 1 0.893435 0.0806117 0.5
39 1 0.915273 0.0117331 0.5
40 1 0.989396 0.0455671 0.5
41 1 0.958853 0.0677716 0.5
42 1 0.988202 0.0775722 0.5
43 1 0.0364603 0.0904963 0.5
44 1 0.0488117 0.119681 0.5
45 1 0.058544 0.0652589 0.5
46 1 0.103692 0.0794678 0.5
47 1 0.143292 0.0771938 0.5
48 1 0.198771 0.101089 0.5
49 1 0.227216 0.0289364 0.5
50 1 0.269924 0.0385581 0.5
51 1 0.27757 0.00525948 0.5
52 1 0.313964 0.0674336 0.5
53 1 0.319395 0.110675 0.5
54 1 0.281613 0.0695874 0.5
55 1 0.345836 0.133705 0.5
56 1 0.364096 0.110648 0.5
57 1 0.360084 0.0754603 0.5
58 1 0.460165 0.094099 0.5
59 1 0.433373 0.000687183 0.5
60 1 0.425831 0.0492273 0.5
61 1 0.508189 0.938901 0.5
62 1 0.49775 0.0292836 0.5
63 1 0.530395 0.0491472 0.5
64 1 0.589493 0.0828154 0.5
65 1 0.553807 0.0748839 0.5
66 1 0.62434 0.0379517 0.5
67 1 0.690329 0.0174547 0.5
68 1 0.653471 0.0531099 0.5
69 1 0.713001 0.997975 0.5
70 1 0.721103 0.0308067 0.5
71 1 0.745253 0.0531937 0.5
72 1 0.853074 0.0179752 0.5
73 1 0.810077 0.0528171 0.5
74 1 0.780354 0.073422 0.5
75 1 0.856913 0.146766 0.5
76 1 0.897767 0.139504 0.5
77 1 0.926873 0.0790893 0.5
78 1 0.926769 0.155583 0.5
79 1 0.897821 0.0375677 0.5
80 1 0.923276 0.111288 0.5
81 1 0.972115 0.109049 0.5
82 1 0.0075507 0.113237 0.5
83 1 0.0920251 0.124902 0.5
84 1 0.117881 0.111423 0.5
85 1 0.0702055 0.0948177 0.5
86 1 0.152966 0.112864 0.5
87 1 0.232919 0.116822 0.5
88 1 0.212056 0.195269 0.5
89 1 0.204092 0.135454 0.5
90 1 0.243077 0.0870413 0.5
91 1 0.240163 0.0557453 0.5
92 1 0.277114 0.161819 0.5
93 1 0.285972 0.115844 0.5
94 1 0.311193 0.149988 0.5
95 1 0.380256 0.147016 0.5
96 1 0.375757 0.18363 0.5
97 1 0.427847 0.0803258 0.5
98 1 0.460985 0.12723 0.5
99 1 0.456315 0.0573495 0.5
100 1 0.494591 0.0678701 0.5
101 1 0.516464 0.094276 0.5
102 1 0.495751 0.125046 0.5
103 1 0.547363 0.106325 0.5
104 1 0.592859 0.14719 0.5
105 1 0.590366 0.0500988 0.5
106 1 0.608419 0.116552 0.5
107 1 0.628303 0.0698338 0.5
108 1 0.672647 0.0854544 0.5
109 1 0.699298 0.109499 0.5
110 1 0.778294 0.11458 0.5
111 1 0.692306 0.053433 0.5
112 1 0.718981 0.0789655 0.5
113 1 0.752833 0.0959164 0.5
114 1 0.811624 0.0873171 0.5
115 1 0.854148 0.177564 0.5
116 1 0.89282 0.246934 0.5
117 1 0.868276 0.210216 0.5
118 1 0.88399 0.167389 0.5
119 1 0.947019 0.131981 0.5
120 1 0.984727 0.135166 0.5
121 1 0.0205747 0.143888 0.5
122 1 0.0773354 0.176652 0.5
123 1 0.068186 0.146289 0.5
124 1 0.103222 0.154708 0.5
125 1 0.13302 0.155667 0.5
126 1 0.187717 0.174662 0.5
127 1 0.173814 0.143705 0.5
128 1 0.196713 0.222397 0.5
129 1 0.257579 0.13488 0.5
130 1 0.244554 0.18384 0.5
131 1 0.248473 0.2206 0.5
132 1 0.290374 0.227997 0.5
133 1 0.316181 0.213052 0.5
134 1 0.279073 0.195958 0.5
135 1 0.343303 0.172295 0.5
136 1 0.410135 0.167291 0.5
137 1 0.407432 0.124597 0.5
138 1 0.442601 0.155023 0.5
139 1 0.4955 0.156532 0.5
140 1 0.520577 0.175026 0.5
141 1 0.525852 0.136011 0.5
142 1 0.547651 0.186669 0.5
143 1 0.576651 0.11254 0.5
144 1 0.61784 0.171837 0.5
145 1 0.634848 0.143445 0.5
146 1 0.672239 0.122904 0.5
147 1 0.642933 0.108675 0.5
148 1 0.713162 0.142821 0.5
149 1 0.754228 0.154926 0.5
150 1 0.779375 0.180477 0.5
151 1 0.81834 0.118153 0.5
152 1 0.808697 0.192491 0.5
153 1 0.792178 0.149157 0.5
154 1 0.835097 0.211315 0.5
155 1 0.824639 0.154188 0.5
156 1 0.913464 0.185116 0.5
157 1 0.942151 0.205667 0.5
158 1 0.99595 0.165261 0.5
159 1 0.957108 0.16315 0.5
160 1 0.0444805 0.175545 0.5
161 1 0.0159727 0.200344 0.5
162 1 0.0720139 0.249772 0.5
163 1 0.045924 0.207101 0.5
164 1 0.115737 0.18414 0.5
165 1 0.150195 0.190999 0.5
166 1 0.0845626 0.207197 0.5
167 1 0.159585 0.22123 0.5
168 1 0.191121 0.252831 0.5
169 1 0.221629 0.24205 0.5
170 1 0.24888 0.274494 0.5
171 1 0.321223 0.245301 0.5
172 1 0.345584 0.261943 0.5
173 1 0.351372 0.214101 0.5
174 1 0.356285 0.299087 0.5
175 1 0.31233 0.180436 0.5
176 1 0.402599 0.210074 0.5
177 1 0.441475 0.196704 0.5
178 1 0.404994 0.248697 0.5
179 1 0.467385 0.172479 0.5
180 1 0.468804 0.213149 0.5
181 1 0.502089 0.20199 0.5
182 1 0.549347 0.217865 0.5
183 1 0.560649 0.139835 0.5
184 1 0.581595 0.192878 0.5
185 1 0.610278 0.204975 0.5
186 1 0.652046 0.181598 0.5
187 1 0.692208 0.168244 0.5
188 1 0.677405 0.198945 0.5
189 1 0.739987 0.124137 0.5
190 1 0.714037 0.213051 0.5
191 1 0.722678 0.175024 0.5
192 1 0.747766 0.192261 0.5
193 1 0.805855 0.225405 0.5
194 1 0.772443 0.214058 0.5
195 1 0.810591 0.272076 0.5
196 1 0.841792 0.241223 0.5
197 1 0.902121 0.214168 0.5
198 1 0.9673 0.23449 0.5
199 1 0.975071 0.195613 0.5
200 1 0.0375322 0.242575 0.5
201 1 0.0438276 0.272647 0.5
202 1 0.00750358 0.269042 0.5
203 1 0.0837657 0.283532 0.5
204 1 0.117226 0.300519 0.5
205 1 0.102574 0.236532 0.5
206 1 0.156227 0.250931 0.5
207 1 0.124534 0.213941 0.5
208 1 0.145677 0.28169 0.5
209 1 0.217954 0.277278 0.5
210 1 0.293122 0.303154 0.5
211 1 0.286832 0.259971 0.5
212 1 0.316537 0.27632 0.5
213 1 0.374109 0.327529 0.5
214 1 0.402356 0.304107 0.5
215 1 0.374526 0.234238 0.5
216 1 0.459311 0.26261 0.5
217 1 0.384088 0.277778 0.5
218 1 0.440203 0.235294 0.5
219 1 0.484527 0.243988 0.5
220 1 0.534244 0.264527 0.5
221 1 0.518663 0.2273 0.5
222 1 0.571508 0.282024 0.5
223 1 0.563574 0.253133 0.5
224 1 0.608285 0.297532 0.5
225 1 0.587298 0.233825 0.5
226 1 0.631486 0.249669 0.5
227 1 0.640104 0.21855 0.5
228 1 0.663515 0.250191 0.5
229 1 0.699882 0.241018 0.5
230 1 0.685551 0.272552 0.5
231 1 0.742144 0.229198 0.5
232 1 0.74817 0.291332 0.5
233 1 0.726757 0.259355 0.5
234 1 0.775642 0.256759 0.5
235 1 0.845774 0.270837 0.5
236 1 0.859762 0.307788 0.5
237 1 0.887274 0.27725 0.5
238 1 0.903686 0.3027 0.5
239 1 0.934617 0.245904 0.5
240 1 0.00278247 0.229988 0.5
241 1 0.961224 0.266689 0.5
242 1 0.010429 0.303263 0.5
243 1 0.056935 0.303786 0.5
244 1 0.0910028 0.317602 0.5
245 1 0.1595 0.312194 0.5
246 1 0.143806 0.369603 0.5
247 1 0.110545 0.268973 0.5
248 1 0.170754 0.343114 0.5
249 1 0.182459 0.285456 0.5
250 1 0.263003 0.303206 0.5
251 1 0.322473 0.317104 0.5
252 1 0.298641 0.381466 0.5
253 1 0.342996 0.342264 0.5
254 1 0.405039 0.338037 0.5
255 1 0.429095 0.272741 0.5
256 1 0.349416 0.396783 0.5
257 1 0.495881 0.275055 0.5
258 1 0.463981 0.293462 0.5
259 1 0.502821 0.312752 0.5
260 1 0.53879 0.30942 0.5
261 1 0.541896 0.362833 0.5
262 1 0.514551 0.375526 0.5
263 1 0.557378 0.335188 0.5
264 1 0.58441 0.32148 0.5
265 1 0.6002 0.263637 0.5
266 1 0.615892 0.334221 0.5
267 1 0.655496 0.282914 0.5
268 1 0.637954 0.309679 0.5
269 1 0.693607 0.31555 0.5
270 1 0.716206 0.289197 0.5
271 1 0.748545 0.344362 0.5
272 1 0.767093 0.319285 0.5
273 1 0.793688 0.297555 0.5
274 1 0.803233 0.327345 0.5
275 1 0.82996 0.300785 0.5
276 1 0.839268 0.333634 0.5
277 1 0.884712 0.332476 0.5
278 1 0.953314 0.306857 0.5
279 1 0.92232 0.273706 0.5
280 1 0.983786 0.288608 0.5
281 1 0.00780306 0.344599 0.5
282 1 0.0443121 0.36624 0.5
283 1 0.0410391 0.331808 0.5
284 1 0.106825 0.348632 0.5
285 1 0.135114 0.335706 0.5
286 1 0.11435 0.386134 0.5
287 1 0.172139 0.386476 0.5
288 1 0.205891 0.378016 0.5
289 1 0.210764 0.306121 0.5
290 1 0.20875 0.34189 0.5
291 1 0.242684 0.3316 0.5
292 1 0.267816 0.353129 0.5
293 1 0.240846 0.366494 0.5
294 1 0.325422 0.369752 0.5
295 1 0.296309 0.33867 0.5
296 1 0.382784 0.399437 0.5
297 1 0.43744 0.313315 0.5
298 1 0.372874 0.368999 0.5
299 1 0.434009 0.349699 0.5
300 1 0.484658 0.363896 0.5
301 1 0.468475 0.332411 0.5
302 1 0.51057 0.344883 0.5
303 1 0.583234 0.370178 0.5
304 1 0.596701 0.398879 0.5
305 1 0.653559 0.372568 0.5
306 1 0.658119 0.408719 0.5
307 1 0.662942 0.327227 0.5
308 1 0.683501 0.353071 0.5
309 1 0.719618 0.335626 0.5
310 1 0.711597 0.367089 0.5
311 1 0.781221 0.351732 0.5
312 1 0.755579 0.374518 0.5
313 1 0.792645 0.383571 0.5
314 1 0.841032 0.42187 0.5
315 1 0.819503 0.364634 0.5
316 1 0.861451 0.36214 0.5
317 1 0.905891 0.355177 0.5
318 1 0.942673 0.350918 0.5
319 1 0.922611 0.328507 0.5
320 1 0.984192 0.367676 0.5
321 1 0.015573 0.375908 0.5
322 1 0.0172154 0.415038 0.5
323 1 0.071716 0.342906 0.5
324 1 0.0478559 0.427414 0.5
325 1 0.0772861 0.40612 0.5
326 1 0.165976 0.4396 0.5
327 1 0.14276 0.40912 0.5
328 1 0.185334 0.413121 0.5
329 1 0.22315 0.424826 0.5
330 1 0.243161 0.458542 0.5
331 1 0.256652 0.397718 0.5
332 1 0.321637 0.413737 0.5
333 1 0.285782 0.412527 0.5
334 1 0.345281 0.432477 0.5
335 1 0.37441 0.441711 0.5
336 1 0.424717 0.459435 0.5
337 1 0.404389 0.433258 0.5
338 1 0.403578 0.367406 0.5
339 1 0.439841 0.385619 0.5
340 1 0.411791 0.398417 0.5
341 1 0.489703 0.395715 0.5
342 1 0.572381 0.476299 0.5
343 1 0.538849 0.399276 0.5
344 1 0.582005 0.426718 0.5
345 1 0.61375 0.369411 0.5
346 1 0.625327 0.453814 0.5
347 1 0.68592 0.38807 0.5
348 1 0.679027 0.439102 0.5
349 1 0.72719 0.393416 0.5
350 1 0.705466 0.417888 0.5
351 1 0.725484 0.448895 0.5
352 1 0.768809 0.438233 0.5
353 1 0.755029 0.41073 0.5
354 1 0.819811 0.457113 0.5
355 1 0.799491 0.42028 0.5
356 1 0.850552 0.390875 0.5
357 1 0.8812 0.387177 0.5
358 1 0.8718 0.420382 0.5
359 1 0.98072 0.319972 0.5
360 1 0.950651 0.386017 0.5
361 1 0.987301 0.398447 0.5
362 1 0.0135695 0.451118 0.5
363 1 0.0486769 0.462266 0.5
364 1 0.0813482 0.442912 0.5
365 1 0.110012 0.417307 0.5
366 1 0.132875 0.440656 0.5
367 1 0.146491 0.479101 0.5
368 1 0.177392 0.472895 0.5
369 1 0.21077 0.457868 0.5
370 1 0.237774 0.530132 0.5
371 1 0.258031 0.431026 0.5
372 1 0.263665 0.489072 0.5
373 1 0.323961 0.457681 0.5
374 1 0.289842 0.443906 0.5
375 1 0.357004 0.476773 0.5
376 1 0.422733 0.492425 0.5
377 1 0.443986 0.436047 0.5
378 1 0.470416 0.452641 0.5
379 1 0.497893 0.427996 0.5
380 1 0.505168 0.460544 0.5
381 1 0.462523 0.409025 0.5
382 1 0.543565 0.437924 0.5
383 1 0.530242 0.474673 0.5
384 1 0.54871 0.503431 0.5
385 1 0.588212 0.509097 0.5
386 1 0.619308 0.496677 0.5
387 1 0.62335 0.413482 0.5
388 1 0.692359 0.470765 0.5
389 1 0.74928 0.468741 0.5
390 1 0.721862 0.486414 0.5
391 1 0.775728 0.502873 0.5
392 1 0.789872 0.461843 0.5
393 1 0.840641 0.482217 0.5
394 1 0.843578 0.513942 0.5
395 1 0.85862 0.449029 0.5
396 1 0.8751 0.47878 0.5
397 1 0.926063 0.446676 0.5
398 1 0.954739 0.466949 0.5
399 1 0.91762 0.38592 0.5
400 1 0.909282 0.417072 0.5
401 1 0.985344 0.504565 0.5
403 1 0.0220399 0.482786 0.5
405 1 0.0790411 0.473128 0.5
407 1 0.11501 0.476487 0.5
409 1 0.217528 0.491133 0.5
411 1 0.3011 0.510984 0.5
413 1 0.295007 0.474811 0.5
415 1 0.392256 0.472787 0.5
417 1 0.457504 0.48205 0.5
419 1 0.484758 0.49917 0.5
421 1 0.517845 0.511528 0.5
423 1 0.515774 0.547524 0.5
425 1 0.557937 0.533393 0.5
427 1 0.650645 0.470112 0.5
429 1 0.694731 0.506473 0.5
431 1 0.740486 0.517945 0.5
433 1 0.806551 0.493303 0.5
435 1 0.854074 0.547313 0.5
437 1 0.892884 0.449433 0.5
439 1 0.941351 0.419574 0.5
402 1 0.0114716 0.530925 0.5
441 1 0.986924 0.468944 0.5
404 1 0.0561057 0.497988 0.5
443 1 0.0427817 0.531556 0.5
406 1 0.1005 0.509937 0.5
445 1 0.106799 0.541196 0.5
408 1 0.145734 0.518542 0.5
447 1 0.144494 0.553146 0.5
410 1 0.202616 0.526786 0.5
449 1 0.175616 0.504133 0.5
412 1 0.305277 0.545416 0.5
451 1 0.273155 0.546506 0.5
414 1 0.377276 0.501088 0.5
453 1 0.323533 0.48779 0.5