 # Fcc Ni oriented X=[100] Y=[010] Z=[001].
 
       21600  atoms
           4  atom types
 
      0.00000000     211.72800000  xlo xhi
      0.00000000     105.86400000  ylo yhi
      0.00000000      10.58640000  zlo zhi
 
Masses
 
           1   58.69340000    # Ni
           2   58.69340000    # Ni
           3   58.69340000    # Ni
           4   58.69340000    # Ni
 
Atoms # atomic
 
         1    1        0.00000000       0.00000000       0.00000000
         2    1        1.76440000       1.76440000       0.00000000
         3    1        0.00000000       1.76440000       1.76440000
         4    1        1.76440000       0.00000000       1.76440000
         5    1        3.52880000       0.00000000       0.00000000
         6    1        5.29320000       1.76440000       0.00000000
         7    1        3.52880000       1.76440000       1.76440000
         8    1        5.29320000       0.00000000       1.76440000
         9    1        7.05760000       0.00000000       0.00000000
        10    1        8.82200000       1.76440000       0.00000000
        11    1        7.05760000       1.76440000       1.76440000
        12    1        8.82200000       0.00000000       1.76440000
        13    1       10.58640000       0.00000000       0.00000000
        14    1       12.35080000       1.76440000       0.00000000
        15    1       10.58640000       1.76440000       1.76440000
        16    1       12.35080000       0.00000000       1.76440000
        17    1       14.11520000       0.00000000       0.00000000
        18    1       15.87960000       1.76440000       0.00000000
        19    1       14.11520000       1.76440000       1.76440000
        20    1       15.87960000       0.00000000       1.76440000
        21    1       17.64400000       0.00000000       0.00000000
        22    1       19.40840000       1.76440000       0.00000000
        23    1       17.64400000       1.76440000       1.76440000
        24    1       19.40840000       0.00000000       1.76440000
        25    1       21.17280000       0.00000000       0.00000000
        26    1       22.93720000       1.76440000       0.00000000
        27    1       21.17280000       1.76440000       1.76440000
        28    1       22.93720000       0.00000000       1.76440000
        29    1       24.70160000       0.00000000       0.00000000
        30    1       26.46600000       1.76440000       0.00000000
        31    1       24.70160000       1.76440000       1.76440000
        32    1       26.46600000       0.00000000       1.76440000
        33    1       28.23040000       0.00000000       0.00000000
        34    1       29.99480000       1.76440000       0.00000000
        35    1       28.23040000       1.76440000       1.76440000
        36    1       29.99480000       0.00000000       1.76440000
        37    1       31.75920000       0.00000000       0.00000000
        38    1       33.52360000       1.76440000       0.00000000
        39    1       31.75920000       1.76440000       1.76440000
        40    1       33.52360000       0.00000000       1.76440000
        41    1       35.28800000       0.00000000       0.00000000
        42    1       37.05240000       1.76440000       0.00000000
        43    1       35.28800000       1.76440000       1.76440000
        44    1       37.05240000       0.00000000       1.76440000
        45    1       38.81680000       0.00000000       0.00000000
        46    1       40.58120000       1.76440000       0.00000000
        47    1       38.81680000       1.76440000       1.76440000
        48    1       40.58120000       0.00000000       1.76440000
        49    1       42.34560000       0.00000000       0.00000000
        50    1       44.11000000       1.76440000       0.00000000
        51    1       42.34560000       1.76440000       1.76440000
        52    1       44.11000000       0.00000000       1.76440000
        53    1       45.87440000       0.00000000       0.00000000
        54    1       47.63880000       1.76440000       0.00000000
        55    1       45.87440000       1.76440000       1.76440000
        56    1       47.63880000       0.00000000       1.76440000
        57    1       49.40320000       0.00000000       0.00000000
        58    1       51.16760000       1.76440000       0.00000000
        59    1       49.40320000       1.76440000       1.76440000
        60    1       51.16760000       0.00000000       1.76440000
        61    1       52.93200000       0.00000000       0.00000000
        62    1       54.69640000       1.76440000       0.00000000
        63    1       52.93200000       1.76440000       1.76440000
        64    1       54.69640000       0.00000000       1.76440000
        65    1       56.46080000       0.00000000       0.00000000
        66    1       58.22520000       1.76440000       0.00000000
        67    1       56.46080000       1.76440000       1.76440000
        68    1       58.22520000       0.00000000       1.76440000
        69    1       59.98960000       0.00000000       0.00000000
        70    1       61.75400000       1.76440000       0.00000000
        71    1       59.98960000       1.76440000       1.76440000
        72    1       61.75400000       0.00000000       1.76440000
        73    1       63.51840000       0.00000000       0.00000000
        74    1       65.28280000       1.76440000       0.00000000
        75    1       63.51840000       1.76440000       1.76440000
        76    1       65.28280000       0.00000000       1.76440000
        77    1       67.04720000       0.00000000       0.00000000
        78    1       68.81160000       1.76440000       0.00000000
        79    1       67.04720000       1.76440000       1.76440000
        80    1       68.81160000       0.00000000       1.76440000
        81    1       70.57600000       0.00000000       0.00000000
        82    1       72.34040000       1.76440000       0.00000000
        83    1       70.57600000       1.76440000       1.76440000
        84    1       72.34040000       0.00000000       1.76440000
        85    1       74.10480000       0.00000000       0.00000000
        86    1       75.86920000       1.76440000       0.00000000
        87    1       74.10480000       1.76440000       1.76440000
        88    1       75.86920000       0.00000000       1.76440000
        89    1       77.63360000       0.00000000       0.00000000
        90    1       79.39800000       1.76440000       0.00000000
        91    1       77.63360000       1.76440000       1.76440000
        92    1       79.39800000       0.00000000       1.76440000
        93    1       81.16240000       0.00000000       0.00000000
        94    1       82.92680000       1.76440000       0.00000000
        95    1       81.16240000       1.76440000       1.76440000
        96    1       82.92680000       0.00000000       1.76440000
        97    1       84.69120000       0.00000000       0.00000000
        98    1       86.45560000       1.76440000       0.00000000
        99    1       84.69120000       1.76440000       1.76440000
       100    1       86.45560000       0.00000000       1.76440000
       101    1       88.22000000       0.00000000       0.00000000
       102    1       89.98440000       1.76440000       0.00000000
       103    1       88.22000000       1.76440000       1.76440000
       104    1       89.98440000       0.00000000       1.76440000
       105    1       91.74880000       0.00000000       0.00000000
       106    1       93.51320000       1.76440000       0.00000000
       107    1       91.74880000       1.76440000       1.76440000
       108    1       93.51320000       0.00000000       1.76440000
       109    1       95.27760000       0.00000000       0.00000000
       110    1       97.04200000       1.76440000       0.00000000
       111    1       95.27760000       1.76440000       1.76440000
       112    1       97.04200000       0.00000000       1.76440000
       113    1       98.80640000       0.00000000       0.00000000
       114    1      100.57080000       1.76440000       0.00000000
       115    1       98.80640000       1.76440000       1.76440000
       116    1      100.57080000       0.00000000       1.76440000
       117    1      102.33520000       0.00000000       0.00000000
       118    1      104.09960000       1.76440000       0.00000000
       119    1      102.33520000       1.76440000       1.76440000
       120    1      104.09960000       0.00000000       1.76440000
       121    1      105.86400000       0.00000000       0.00000000
       122    1      107.62840000       1.76440000       0.00000000
       123    1      105.86400000       1.76440000       1.76440000
       124    1      107.62840000       0.00000000       1.76440000
       125    1      109.39280000       0.00000000       0.00000000
       126    1      111.15720000       1.76440000       0.00000000
       127    1      109.39280000       1.76440000       1.76440000
       128    1      111.15720000       0.00000000       1.76440000
       129    1      112.92160000       0.00000000       0.00000000
       130    1      114.68600000       1.76440000       0.00000000
       131    1      112.92160000       1.76440000       1.76440000
       132    1      114.68600000       0.00000000       1.76440000
       133    1      116.45040000       0.00000000       0.00000000
       134    1      118.21480000       1.76440000       0.00000000
       135    1      116.45040000       1.76440000       1.76440000
       136    1      118.21480000       0.00000000       1.76440000
       137    1      119.97920000       0.00000000       0.00000000
       138    1      121.74360000       1.76440000       0.00000000
       139    1      119.97920000       1.76440000       1.76440000
       140    1      121.74360000       0.00000000       1.76440000
       141    1      123.50800000       0.00000000       0.00000000
       142    1      125.27240000       1.76440000       0.00000000
       143    1      123.50800000       1.76440000       1.76440000
       144    1      125.27240000       0.00000000       1.76440000
       145    1      127.03680000       0.00000000       0.00000000
       146    1      128.80120000       1.76440000       0.00000000
       147    1      127.03680000       1.76440000       1.76440000
       148    1      128.80120000       0.00000000       1.76440000
       149    1      130.56560000       0.00000000       0.00000000
       150    1      132.33000000       1.76440000       0.00000000
       151    1      130.56560000       1.76440000       1.76440000
       152    1      132.33000000       0.00000000       1.76440000
       153    1      134.09440000       0.00000000       0.00000000
       154    1      135.85880000       1.76440000       0.00000000
       155    1      134.09440000       1.76440000       1.76440000
       156    1      135.85880000       0.00000000       1.76440000
       157    1      137.62320000       0.00000000       0.00000000
       158    1      139.38760000       1.76440000       0.00000000
       159    1      137.62320000       1.76440000       1.76440000
       160    1      139.38760000       0.00000000       1.76440000
       161    1      141.15200000       0.00000000       0.00000000
       162    1      142.91640000       1.76440000       0.00000000
       163    1      141.15200000       1.76440000       1.76440000
       164    1      142.91640000       0.00000000       1.76440000
       165    1      144.68080000       0.00000000       0.00000000
       166    1      146.44520000       1.76440000       0.00000000
       167    1      144.68080000       1.76440000       1.76440000
       168    1      146.44520000       0.00000000       1.76440000
       169    1      148.20960000       0.00000000       0.00000000
       170    1      149.97400000       1.76440000       0.00000000
       171    1      148.20960000       1.76440000       1.76440000
       172    1      149.97400000       0.00000000       1.76440000
       173    1      151.73840000       0.00000000       0.00000000
       174    1      153.50280000       1.76440000       0.00000000
       175    1      151.73840000       1.76440000       1.76440000
       176    1      153.50280000       0.00000000       1.76440000
       177    1      155.26720000       0.00000000       0.00000000
       178    1      157.03160000       1.76440000       0.00000000
       179    1      155.26720000       1.76440000       1.76440000
       180    1      157.03160000       0.00000000       1.76440000
       181    1      158.79600000       0.00000000       0.00000000
       182    1      160.56040000       1.76440000       0.00000000
       183    1      158.79600000       1.76440000       1.76440000
       184    1      160.56040000       0.00000000       1.76440000
       185    1      162.32480000       0.00000000       0.00000000
       186    1      164.08920000       1.76440000       0.00000000
       187    1      162.32480000       1.76440000       1.76440000
       188    1      164.08920000       0.00000000       1.76440000
       189    1      165.85360000       0.00000000       0.00000000
       190    1      167.61800000       1.76440000       0.00000000
       191    1      165.85360000       1.76440000       1.76440000
       192    1      167.61800000       0.00000000       1.76440000
       193    1      169.38240000       0.00000000       0.00000000
       194    1      171.14680000       1.76440000       0.00000000
       195    1      169.38240000       1.76440000       1.76440000
       196    1      171.14680000       0.00000000       1.76440000
       197    1      172.91120000       0.00000000       0.00000000
       198    1      174.67560000       1.76440000       0.00000000
       199    1      172.91120000       1.76440000       1.76440000
       200    1      174.67560000       0.00000000       1.76440000
       201    1      176.44000000       0.00000000       0.00000000
       202    1      178.20440000       1.76440000       0.00000000
       203    1      176.44000000       1.76440000       1.76440000
       204    1      178.20440000       0.00000000       1.76440000
       205    1      179.96880000       0.00000000       0.00000000
       206    1      181.73320000       1.76440000       0.00000000
       207    1      179.96880000       1.76440000       1.76440000
       208    1      181.73320000       0.00000000       1.76440000
       209    1      183.49760000       0.00000000       0.00000000
       210    1      185.26200000       1.76440000       0.00000000
       211    1      183.49760000       1.76440000       1.76440000
       212    1      185.26200000       0.00000000       1.76440000
       213    1      187.02640000       0.00000000       0.00000000
       214    1      188.79080000       1.76440000       0.00000000
       215    1      187.02640000       1.76440000       1.76440000
       216    1      188.79080000       0.00000000       1.76440000
       217    1      190.55520000       0.00000000       0.00000000
       218    1      192.31960000       1.76440000       0.00000000
       219    1      190.55520000       1.76440000       1.76440000
       220    1      192.31960000       0.00000000       1.76440000
       221    1      194.08400000       0.00000000       0.00000000
       222    1      195.84840000       1.76440000       0.00000000
       223    1      194.08400000       1.76440000       1.76440000
       224    1      195.84840000       0.00000000       1.76440000
       225    1      197.61280000       0.00000000       0.00000000
       226    1      199.37720000       1.76440000       0.00000000
       227    1      197.61280000       1.76440000       1.76440000
       228    1      199.37720000       0.00000000       1.76440000
       229    1      201.14160000       0.00000000       0.00000000
       230    1      202.90600000       1.76440000       0.00000000
       231    1      201.14160000       1.76440000       1.76440000
       232    1      202.90600000       0.00000000       1.76440000
       233    1      204.67040000       0.00000000       0.00000000
       234    1      206.43480000       1.76440000       0.00000000
       235    1      204.67040000       1.76440000       1.76440000
       236    1      206.43480000       0.00000000       1.76440000
       237    1      208.19920000       0.00000000       0.00000000
       238    1      209.96360000       1.76440000       0.00000000
       239    1      208.19920000       1.76440000       1.76440000
       240    1      209.96360000       0.00000000       1.76440000
       241    1        0.00000000       3.52880000       0.00000000
       242    1        1.76440000       5.29320000       0.00000000
       243    1        0.00000000       5.29320000       1.76440000
       244    1        1.76440000       3.52880000       1.76440000
       245    1        3.52880000       3.52880000       0.00000000
       246    1        5.29320000       5.29320000       0.00000000
       247    1        3.52880000       5.29320000       1.76440000
       248    1        5.29320000       3.52880000       1.76440000
       249    1        7.05760000       3.52880000       0.00000000
       250    1        8.82200000       5.29320000       0.00000000
       251    1        7.05760000       5.29320000       1.76440000
       252    1        8.82200000       3.52880000       1.76440000
       253    1       10.58640000       3.52880000       0.00000000
       254    1       12.35080000       5.29320000       0.00000000
       255    1       10.58640000       5.29320000       1.76440000
       256    1       12.35080000       3.52880000       1.76440000
       257    1       14.11520000       3.52880000       0.00000000
       258    1       15.87960000       5.29320000       0.00000000
       259    1       14.11520000       5.29320000       1.76440000
       260    1       15.87960000       3.52880000       1.76440000
       261    1       17.64400000       3.52880000       0.00000000
       262    1       19.40840000       5.29320000       0.00000000
       263    1       17.64400000       5.29320000       1.76440000
       264    1       19.40840000       3.52880000       1.76440000
       265    1       21.17280000       3.52880000       0.00000000
       266    1       22.93720000       5.29320000       0.00000000
       267    1       21.17280000       5.29320000       1.76440000
       268    1       22.93720000       3.52880000       1.76440000
       269    1       24.70160000       3.52880000       0.00000000
       270    1       26.46600000       5.29320000       0.00000000
       271    1       24.70160000       5.29320000       1.76440000
       272    1       26.46600000       3.52880000       1.76440000
       273    1       28.23040000       3.52880000       0.00000000
       274    1       29.99480000       5.29320000       0.00000000
       275    1       28.23040000       5.29320000       1.76440000
       276    1       29.99480000       3.52880000       1.76440000
       277    1       31.75920000       3.52880000       0.00000000
       278    1       33.52360000       5.29320000       0.00000000
       279    1       31.75920000       5.29320000       1.76440000
       280    1       33.52360000       3.52880000       1.76440000
       281    1       35.28800000       3.52880000       0.00000000
       282    1       37.05240000       5.29320000       0.00000000
       283    1       35.28800000       5.29320000       1.76440000
       284    1       37.05240000       3.52880000       1.76440000
       285    1       38.81680000       3.52880000       0.00000000
       286    1       40.58120000       5.29320000       0.00000000
       287    1       38.81680000       5.29320000       1.76440000
       288    1       40.58120000       3.52880000       1.76440000
       289    1       42.34560000       3.52880000       0.00000000
       290    1       44.11000000       5.29320000       0.00000000
       291    1       42.34560000       5.29320000       1.76440000
       292    1       44.11000000       3.52880000       1.76440000
       293    1       45.87440000       3.52880000       0.00000000
       294    1       47.63880000       5.29320000       0.00000000
       295    1       45.87440000       5.29320000       1.76440000
       296    1       47.63880000       3.52880000       1.76440000
       297    1       49.40320000       3.52880000       0.00000000
       298    1       51.16760000       5.29320000       0.00000000
       299    1       49.40320000       5.29320000       1.76440000
       300    1       51.16760000       3.52880000       1.76440000
       301    1       52.93200000       3.52880000       0.00000000
       302    1       54.69640000       5.29320000       0.00000000
       303    1       52.93200000       5.29320000       1.76440000
       304    1       54.69640000       3.52880000       1.76440000
       305    1       56.46080000       3.52880000       0.00000000
       306    1       58.22520000       5.29320000       0.00000000
       307    1       56.46080000       5.29320000       1.76440000
       308    1       58.22520000       3.52880000       1.76440000
       309    1       59.98960000       3.52880000       0.00000000
       310    1       61.75400000       5.29320000       0.00000000
       311    1       59.98960000       5.29320000       1.76440000
       312    1       61.75400000       3.52880000       1.76440000
       313    1       63.51840000       3.52880000       0.00000000
       314    1       65.28280000       5.29320000       0.00000000
       315    1       63.51840000       5.29320000       1.76440000
       316    1       65.28280000       3.52880000       1.76440000
       317    1       67.04720000       3.52880000       0.00000000
       318    1       68.81160000       5.29320000       0.00000000
       319    1       67.04720000       5.29320000       1.76440000
       320    1       68.81160000       3.52880000       1.76440000
       321    1       70.57600000       3.52880000       0.00000000
       322    1       72.34040000       5.29320000       0.00000000
       323    1       70.57600000       5.29320000       1.76440000
       324    1       72.34040000       3.52880000       1.76440000
       325    1       74.10480000       3.52880000       0.00000000
       326    1       75.86920000       5.29320000       0.00000000
       327    1       74.10480000       5.29320000       1.76440000
       328    1       75.86920000       3.52880000       1.76440000
       329    1       77.63360000       3.52880000       0.00000000
       330    1       79.39800000       5.29320000       0.00000000
       331    1       77.63360000       5.29320000       1.76440000
       332    1       79.39800000       3.52880000       1.76440000
       333    1       81.16240000       3.52880000       0.00000000
       334    1       82.92680000       5.29320000       0.00000000
       335    1       81.16240000       5.29320000       1.76440000
       336    1       82.92680000       3.52880000       1.76440000
       337    1       84.69120000       3.52880000       0.00000000
       338    1       86.45560000       5.29320000       0.00000000
       339    1       84.69120000       5.29320000       1.76440000
       340    1       86.45560000       3.52880000       1.76440000
       341    1       88.22000000       3.52880000       0.00000000
       342    1       89.98440000       5.29320000       0.00000000
       343    1       88.22000000       5.29320000       1.76440000
       344    1       89.98440000       3.52880000       1.76440000
       345    1       91.74880000       3.52880000       0.00000000
       346    1       93.51320000       5.29320000       0.00000000
       347    1       91.74880000       5.29320000       1.76440000
       348    1       93.51320000       3.52880000       1.76440000
       349    1       95.27760000       3.52880000       0.00000000
       350    1       97.04200000       5.29320000       0.00000000
       351    1       95.27760000       5.29320000       1.76440000
       352    1       97.04200000       3.52880000       1.76440000
       353    1       98.80640000       3.52880000       0.00000000
       354    1      100.57080000       5.29320000       0.00000000
       355    1       98.80640000       5.29320000       1.76440000
       356    1      100.57080000       3.52880000       1.76440000
       357    1      102.33520000       3.52880000       0.00000000
       358    1      104.09960000       5.29320000       0.00000000
       359    1      102.33520000       5.29320000       1.76440000
       360    1      104.09960000       3.52880000       1.76440000
       361    1      105.86400000       3.52880000       0.00000000
       362    1      107.62840000       5.29320000       0.00000000
       363    1      105.86400000       5.29320000       1.76440000
       364    1      107.62840000       3.52880000       1.76440000
       365    1      109.39280000       3.52880000       0.00000000
       366    1      111.15720000       5.29320000       0.00000000
       367    1      109.39280000       5.29320000       1.76440000
       368    1      111.15720000       3.52880000       1.76440000
       369    1      112.92160000       3.52880000       0.00000000
       370    1      114.68600000       5.29320000       0.00000000
       371    1      112.92160000       5.29320000       1.76440000
       372    1      114.68600000       3.52880000       1.76440000
       373    1      116.45040000       3.52880000       0.00000000
       374    1      118.21480000       5.29320000       0.00000000
       375    1      116.45040000       5.29320000       1.76440000
       376    1      118.21480000       3.52880000       1.76440000
       377    1      119.97920000       3.52880000       0.00000000
       378    1      121.74360000       5.29320000       0.00000000
       379    1      119.97920000       5.29320000       1.76440000
       380    1      121.74360000       3.52880000       1.76440000
       381    1      123.50800000       3.52880000       0.00000000
       382    1      125.27240000       5.29320000       0.00000000
       383    1      123.50800000       5.29320000       1.76440000
       384    1      125.27240000       3.52880000       1.76440000
       385    1      127.03680000       3.52880000       0.00000000
       386    1      128.80120000       5.29320000       0.00000000
       387    1      127.03680000       5.29320000       1.76440000
       388    1      128.80120000       3.52880000       1.76440000
       389    1      130.56560000       3.52880000       0.00000000
       390    1      132.33000000       5.29320000       0.00000000
       391    1      130.56560000       5.29320000       1.76440000
       392    1      132.33000000       3.52880000       1.76440000
       393    1      134.09440000       3.52880000       0.00000000
       394    1      135.85880000       5.29320000       0.00000000
       395    1      134.09440000       5.29320000       1.76440000
       396    1      135.85880000       3.52880000       1.76440000
       397    1      137.62320000       3.52880000       0.00000000
       398    1      139.38760000       5.29320000       0.00000000
       399    1      137.62320000       5.29320000       1.76440000
       400    1      139.38760000       3.52880000       1.76440000
       401    1      141.15200000       3.52880000       0.00000000
       402    1      142.91640000       5.29320000       0.00000000
       403    1      141.15200000       5.29320000       1.76440000
       404    1      142.91640000       3.52880000       1.76440000
       405    1      144.68080000       3.52880000       0.00000000
       406    1      146.44520000       5.29320000       0.00000000
       407    1      144.68080000       5.29320000       1.76440000
       408    1      146.44520000       3.52880000       1.76440000
       409    1      148.20960000       3.52880000       0.00000000
       410    1      149.97400000       5.29320000       0.00000000
       411    1      148.20960000       5.29320000       1.76440000
       412    1      149.97400000       3.52880000       1.76440000
       413    1      151.73840000       3.52880000       0.00000000
       414    1      153.50280000       5.29320000       0.00000000
       415    1      151.73840000       5.29320000       1.76440000
       416    1      153.50280000       3.52880000       1.76440000
       417    1      155.26720000       3.52880000       0.00000000
       418    1      157.03160000       5.29320000       0.00000000
       419    1      155.26720000       5.29320000       1.76440000
       420    1      157.03160000       3.52880000       1.76440000
       421    1      158.79600000       3.52880000       0.00000000
       422    1      160.56040000       5.29320000       0.00000000
       423    1      158.79600000       5.29320000       1.76440000
       424    1      160.56040000       3.52880000       1.76440000
       425    1      162.32480000       3.52880000       0.00000000
       426    1      164.08920000       5.29320000       0.00000000
       427    1      162.32480000       5.29320000       1.76440000
       428    1      164.08920000       3.52880000       1.76440000